 Gaussian 09, Revision E.01,
 Gaussian 09:  ES64L-G09RevE.01 30-Nov-2015

 ----------------------------------------------------------------------
 # RMP2=(full,semidirect)/cc-pVTZ int=ultrafine symmetry=none scf=(conv
 er=10)
 ----------------------------------------------------------------------

 -----------------
 CCNTf2_88_88GSMP2
 -----------------
 Symbolic Z-matrix:
 Charge = -1 Multiplicity = 1

                          Input orientation:
 ---------------------------------------------------------------------
 Center     Atomic      Atomic             Coordinates (Angstroms)
 Number     Number       Type             X           Y           Z
 ---------------------------------------------------------------------
      1          6           0       -0.140868   -0.000988   -0.059555
      2         16           0        0.015258   -0.101132    1.655130
      3         16           0        1.226922    0.101371   -1.105068
      4          6           0        0.059320    1.700438    2.248366
      5          6           0        1.695576   -1.699440   -1.475014
      6          9           0        2.721169   -1.725323   -2.344165
      7          9           0        0.111862    1.727906    3.591659
      8          8           0        2.402013    0.641687   -0.431504
      9          8           0        0.800406    0.604459   -2.409533
     10          8           0       -1.233570   -0.604071    2.224451
     11          8           0        1.306592   -0.640341    2.065209
     12          9           0       -1.046865    2.349717    1.858297
     13          9           0        0.661040   -2.349188   -2.027204
     14          9           0        1.122341    2.351117    1.772052
     15          9           0        2.063512   -2.350686   -0.370107
     16          6           0       -1.425230   -0.002000   -0.623458
     17          7           0       -2.487546   -0.002917   -1.089924
 ---------------------------------------------------------------------

 SCF Done:  E(RHF) =  -1897.43173920     A.U. after   21 cycles
 E2 =    -0.3917692021D+01 EUMP2 =    -0.19013494312233D+04

 Alpha  occ. eigenvalues --  -92.10002 -92.10001 -26.25118 -26.25117 -26.25109
 Alpha  occ. eigenvalues --  -26.25107 -26.25007 -26.25004 -20.44900 -20.44899
 Alpha  occ. eigenvalues --  -20.44857 -20.44856 -15.44043 -11.42614 -11.42613
 Alpha  occ. eigenvalues --  -11.17107 -11.16219  -9.06677  -9.06676  -6.75160
 Alpha  occ. eigenvalues --   -6.75159  -6.75128  -6.75127  -6.75109  -6.75109
 Alpha  occ. eigenvalues --   -1.63885  -1.63881  -1.54561  -1.54559  -1.54488
 Alpha  occ. eigenvalues --   -1.54487  -1.35053  -1.34227  -1.23827  -1.23490
 Alpha  occ. eigenvalues --   -1.09421  -0.98304  -0.91069  -0.89108  -0.81238
 Alpha  occ. eigenvalues --   -0.77482  -0.73360  -0.73193  -0.73128  -0.73104
 Alpha  occ. eigenvalues --   -0.71367  -0.69555  -0.62409  -0.62081  -0.61848
 Alpha  occ. eigenvalues --   -0.61822  -0.60309  -0.58703  -0.57519  -0.57445
 Alpha  occ. eigenvalues --   -0.57228  -0.57215  -0.55928  -0.55925  -0.55486
 Alpha  occ. eigenvalues --   -0.54544  -0.53103  -0.53014  -0.44330  -0.42073
 Alpha  occ. eigenvalues --   -0.40738  -0.40559  -0.40198  -0.38593  -0.38369
 Alpha  occ. eigenvalues --   -0.37720  -0.35926  -0.35159  -0.32506  -0.24731
 Alpha virt. eigenvalues --    0.26938   0.27747   0.31450   0.31475   0.35198
 Alpha virt. eigenvalues --    0.35396   0.36006   0.38944   0.39013   0.40726
 Alpha virt. eigenvalues --    0.42170   0.42849   0.44116   0.45077   0.47371

 Mulliken charges:
               1
     1  C   -0.506478
     2  S    0.971479
     3  S    0.971402
     4  C    0.597284
     5  C    0.597342
     6  F   -0.224676
     7  F   -0.224686
     8  O   -0.546726
     9  O   -0.551395
    10  O   -0.551400
    11  O   -0.546723
    12  F   -0.219214
    13  F   -0.219200
    14  F   -0.205973
    15  F   -0.206024
    16  C    0.057942
    17  N   -0.192953
 Sum of Mulliken charges =  -1.00000

 Dipole moment (field-independent basis, Debye):
    X=              0.3144    Y=              0.0019    Z=              0.1258  Tot=              0.3386
 Quadrupole moment (field-independent basis, Debye-Ang):
   XX=           -135.3256   YY=           -113.5923   ZZ=           -132.5588
   XY=             -1.4657   XZ=             -1.5096   YZ=              3.2985

 Normal termination of Gaussian 09 at Sat Feb 13 10:01:39 2021.
