 Gaussian 09, Revision E.01,
 Gaussian 09:  ES64L-G09RevE.01 30-Nov-2015

 ----------------------------------------------------------------------
 # RMP2=(full,semidirect)/cc-pVTZ int=ultrafine symmetry=none scf=(conv
 er=10)
 ----------------------------------------------------------------------

 ------------------
 CCNTf2_98_262TSMP2
 ------------------
 Symbolic Z-matrix:
 Charge = -1 Multiplicity = 1

                          Input orientation:
 ---------------------------------------------------------------------
 Center     Atomic      Atomic             Coordinates (Angstroms)
 Number     Number       Type             X           Y           Z
 ---------------------------------------------------------------------
      1          6           0       -0.081093   -0.088659   -0.040998
      2         16           0        0.005605   -0.069631    1.683621
      3         16           0        1.281203   -0.065213   -1.101926
      4          6           0       -0.273416    1.737597    2.199424
      5          6           0        1.486024    1.743387   -1.646574
      6          9           0        2.393531    1.813866   -2.634679
      7          9           0       -0.431805    1.803891    3.531869
      8          8           0        0.914052   -0.727446   -2.352317
      9          8           0        2.534531   -0.363736   -0.422830
     10          8           0       -1.181015   -0.733372    2.220491
     11          8           0        1.338421   -0.369570    2.188338
     12          9           0       -1.372431    2.237573    1.618491
     13          9           0        1.908960    2.512319   -0.636700
     14          9           0        0.768272    2.507597    1.864864
     15          9           0        0.328125    2.241486   -2.100908
     16          6           0       -1.358364   -0.101970   -0.625894
     17          7           0       -2.413083   -0.103057   -1.108885
 ---------------------------------------------------------------------

 SCF Done:  E(RHF) =  -1897.42662865     A.U. after   20 cycles
 E2 =    -0.3919121930D+01 EUMP2 =    -0.19013457505794D+04

 Alpha  occ. eigenvalues --  -92.10073 -92.10073 -26.25356 -26.25355 -26.25349
 Alpha  occ. eigenvalues --  -26.25348 -26.25280 -26.25278 -20.44884 -20.44884
 Alpha  occ. eigenvalues --  -20.44737 -20.44736 -15.44174 -11.42745 -11.42745
 Alpha  occ. eigenvalues --  -11.17331 -11.16261  -9.06724  -9.06723  -6.75213
 Alpha  occ. eigenvalues --   -6.75213  -6.75176  -6.75176  -6.75153  -6.75153
 Alpha  occ. eigenvalues --   -1.64165  -1.64082  -1.54933  -1.54779  -1.54720
 Alpha  occ. eigenvalues --   -1.54657  -1.35020  -1.34204  -1.23808  -1.23436
 Alpha  occ. eigenvalues --   -1.09559  -0.98262  -0.91044  -0.89438  -0.81209
 Alpha  occ. eigenvalues --   -0.77891  -0.73628  -0.73515  -0.73493  -0.73130
 Alpha  occ. eigenvalues --   -0.71102  -0.69866  -0.62543  -0.62328  -0.62201
 Alpha  occ. eigenvalues --   -0.61989  -0.60394  -0.58686  -0.58160  -0.57816
 Alpha  occ. eigenvalues --   -0.57438  -0.56979  -0.56387  -0.55880  -0.55763
 Alpha  occ. eigenvalues --   -0.54412  -0.53148  -0.52988  -0.44508  -0.42481
 Alpha  occ. eigenvalues --   -0.40761  -0.39825  -0.39249  -0.39218  -0.38173
 Alpha  occ. eigenvalues --   -0.37763  -0.36277  -0.35294  -0.32263  -0.24828
 Alpha virt. eigenvalues --    0.27240   0.28634   0.29637   0.30187   0.34764
 Alpha virt. eigenvalues --    0.35493   0.36936   0.38638   0.39289   0.40556
 Alpha virt. eigenvalues --    0.42310   0.42520   0.44408   0.45896   0.47061

 Mulliken charges:
               1
     1  C   -0.501818
     2  S    0.966171
     3  S    0.966141
     4  C    0.588441
     5  C    0.588448
     6  F   -0.222528
     7  F   -0.222521
     8  O   -0.551942
     9  O   -0.530275
    10  O   -0.551938
    11  O   -0.530237
    12  F   -0.216544
    13  F   -0.216923
    14  F   -0.216885
    15  F   -0.216507
    16  C    0.059624
    17  N   -0.190707
 Sum of Mulliken charges =  -1.00000

 Dipole moment (field-independent basis, Debye):
    X=              0.0379    Y=              1.3847    Z=              0.0364  Tot=              1.3857
 Quadrupole moment (field-independent basis, Debye-Ang):
   XX=           -135.3084   YY=           -113.6835   ZZ=           -132.9047
   XY=              0.0124   XZ=             -1.3892   YZ=              0.0280

 Normal termination of Gaussian 09 at Sat Feb 13 10:09:41 2021.
