 Gaussian 09, Revision E.01,
 Gaussian 09:  ES64L-G09RevE.01 30-Nov-2015

 ----------------------------------------------------------------------
 # RMP2=(full,semidirect)/cc-pVTZ int=ultrafine symmetry=none scf=(conv
 er=10)
 ----------------------------------------------------------------------

 ------------------
 CCNTf2_83_252GSMP2
 ------------------
 Symbolic Z-matrix:
 Charge = -1 Multiplicity = 1

                          Input orientation:
 ---------------------------------------------------------------------
 Center     Atomic      Atomic             Coordinates (Angstroms)
 Number     Number       Type             X           Y           Z
 ---------------------------------------------------------------------
      1          6           0       -0.098635   -0.076415   -0.041379
      2         16           0        0.029021   -0.067921    1.681140
      3         16           0        1.260008   -0.095169   -1.104351
      4          6           0        0.314094    1.737703    2.195784
      5          6           0        1.296364    1.648485   -1.862563
      6          9           0        2.342724    1.747824   -2.699403
      7          9           0        0.181783    1.846980    3.528749
      8          8           0        0.993177   -0.936913   -2.268812
      9          8           0        2.517591   -0.185551   -0.372397
     10          8           0       -1.296205   -0.358385    2.226604
     11          8           0        1.216809   -0.751831    2.174760
     12          9           0       -0.586878    2.544139    1.617353
     13          9           0        1.427856    2.586559   -0.915761
     14          9           0        1.537686    2.156960    1.861703
     15          9           0        0.178257    1.900720   -2.552791
     16          6           0       -1.379612   -0.031066   -0.612595
     17          7           0       -2.430274    0.011259   -1.103211
 ---------------------------------------------------------------------

 SCF Done:  E(RHF) =  -1897.42703486     A.U. after   20 cycles
 E2 =    -0.3919175250D+01 EUMP2 =    -0.19013462101061D+04

 Alpha  occ. eigenvalues --  -92.10128 -92.09986 -26.25470 -26.25351 -26.25314
 Alpha  occ. eigenvalues --  -26.25313 -26.25200 -26.25184 -20.45036 -20.44868
 Alpha  occ. eigenvalues --  -20.44716 -20.44683 -15.44196 -11.42806 -11.42723
 Alpha  occ. eigenvalues --  -11.17206 -11.16308  -9.06795  -9.06639  -6.75286
 Alpha  occ. eigenvalues --   -6.75247  -6.75215  -6.75129  -6.75093  -6.75066
 Alpha  occ. eigenvalues --   -1.64191  -1.64022  -1.54923  -1.54763  -1.54746
 Alpha  occ. eigenvalues --   -1.54586  -1.35024  -1.34174  -1.23820  -1.23398
 Alpha  occ. eigenvalues --   -1.09580  -0.98317  -0.91064  -0.89367  -0.81216
 Alpha  occ. eigenvalues --   -0.77875  -0.73701  -0.73491  -0.73316  -0.73212
 Alpha  occ. eigenvalues --   -0.71101  -0.69853  -0.62588  -0.62259  -0.62194
 Alpha  occ. eigenvalues --   -0.61969  -0.60408  -0.58725  -0.58100  -0.57749
 Alpha  occ. eigenvalues --   -0.57448  -0.56953  -0.56251  -0.56001  -0.55654
 Alpha  occ. eigenvalues --   -0.54435  -0.53227  -0.52928  -0.44489  -0.42395
 Alpha  occ. eigenvalues --   -0.40739  -0.40163  -0.39527  -0.39264  -0.38076
 Alpha  occ. eigenvalues --   -0.37517  -0.36245  -0.35332  -0.32337  -0.24715
 Alpha virt. eigenvalues --    0.26845   0.28162   0.30355   0.30675   0.35122
 Alpha virt. eigenvalues --    0.35459   0.36654   0.38413   0.39147   0.40729
 Alpha virt. eigenvalues --    0.42221   0.42718   0.44495   0.45946   0.47348

 Mulliken charges:
               1
     1  C   -0.495047
     2  S    0.976777
     3  S    0.962707
     4  C    0.591554
     5  C    0.590020
     6  F   -0.222736
     7  F   -0.223297
     8  O   -0.551788
     9  O   -0.537844
    10  O   -0.552547
    11  O   -0.535646
    12  F   -0.221407
    13  F   -0.220008
    14  F   -0.212344
    15  F   -0.211268
    16  C    0.053199
    17  N   -0.190327
 Sum of Mulliken charges =  -1.00000

 Dipole moment (field-independent basis, Debye):
    X=              0.1154    Y=              1.2865    Z=             -0.1095  Tot=              1.2963
 Quadrupole moment (field-independent basis, Debye-Ang):
   XX=           -135.3407   YY=           -113.9767   ZZ=           -132.4152
   XY=              1.4522   XZ=             -1.1671   YZ=             -0.2555

 Normal termination of Gaussian 09 at Sat Feb 13 10:00:15 2021.
