 Gaussian 09, Revision E.01,
 Gaussian 09:  ES64L-G09RevE.01 30-Nov-2015

 ----------------------------------------------------------------------
 # RMP2=(full,semidirect)/cc-pVTZ int=ultrafine symmetry=none scf=(conv
 er=10)
 ----------------------------------------------------------------------

 ------------------
 CCNTf2_94_178TSMP2
 ------------------
 Symbolic Z-matrix:
 Charge = -1 Multiplicity = 1

                          Input orientation:
 ---------------------------------------------------------------------
 Center     Atomic      Atomic             Coordinates (Angstroms)
 Number     Number       Type             X           Y           Z
 ---------------------------------------------------------------------
      1          6           0       -0.156199   -0.056540   -0.040608
      2         16           0        0.044354   -0.109382    1.656057
      3         16           0        1.296303    0.003659   -1.037609
      4          6           0       -0.068155    1.691957    2.249741
      5          6           0        0.558074   -0.009369   -2.799633
      6          9           0        1.603862   -0.069754   -3.639192
      7          9           0        0.035792    1.736408    3.590394
      8          8           0        2.071088   -1.233275   -0.968681
      9          8           0        2.005005    1.282774   -0.956430
     10          8           0       -1.114788   -0.724932    2.298775
     11          8           0        1.412049   -0.498235    1.992438
     12          9           0       -1.245778    2.231600    1.902771
     13          9           0       -0.131071    1.100091   -3.071142
     14          9           0        0.908889    2.436908    1.728049
     15          9           0       -0.214937   -1.075801   -3.015837
     16          6           0       -1.426552    0.140124   -0.579505
     17          7           0       -2.487289    0.293349   -1.030489
 ---------------------------------------------------------------------

 SCF Done:  E(RHF) =  -1897.41522942     A.U. after   22 cycles
 E2 =    -0.3919340552D+01 EUMP2 =    -0.19013345699739D+04

 Alpha  occ. eigenvalues --  -92.10219 -92.09781 -26.25865 -26.25815 -26.25735
 Alpha  occ. eigenvalues --  -26.24861 -26.24842 -26.24707 -20.44805 -20.44705
 Alpha  occ. eigenvalues --  -20.44653 -20.44465 -15.44587 -11.43701 -11.42264
 Alpha  occ. eigenvalues --  -11.16864 -11.16733  -9.06935  -9.06447  -6.75475
 Alpha  occ. eigenvalues --   -6.75338  -6.75304  -6.74931  -6.74902  -6.74881
 Alpha  occ. eigenvalues --   -1.64742  -1.63580  -1.55485  -1.55207  -1.54278
 Alpha  occ. eigenvalues --   -1.54192  -1.34791  -1.33842  -1.23532  -1.22962
 Alpha  occ. eigenvalues --   -1.10008  -0.98364  -0.91353  -0.89016  -0.81452
 Alpha  occ. eigenvalues --   -0.77240  -0.74054  -0.73997  -0.72927  -0.72809
 Alpha  occ. eigenvalues --   -0.71310  -0.70228  -0.62720  -0.62647  -0.61897
 Alpha  occ. eigenvalues --   -0.61654  -0.60332  -0.58774  -0.58332  -0.57522
 Alpha  occ. eigenvalues --   -0.57104  -0.56933  -0.56641  -0.55647  -0.55136
 Alpha  occ. eigenvalues --   -0.53898  -0.53210  -0.52986  -0.44676  -0.41773
 Alpha  occ. eigenvalues --   -0.41668  -0.40417  -0.40189  -0.38847  -0.37340
 Alpha  occ. eigenvalues --   -0.37046  -0.36345  -0.36121  -0.32156  -0.23907
 Alpha virt. eigenvalues --    0.25451   0.27172   0.29312   0.33586   0.34221
 Alpha virt. eigenvalues --    0.35927   0.36092   0.38953   0.39411   0.41006
 Alpha virt. eigenvalues --    0.41318   0.42579   0.44498   0.47516   0.49754

 Mulliken charges:
               1
     1  C   -0.429769
     2  S    0.951394
     3  S    0.973992
     4  C    0.589861
     5  C    0.587496
     6  F   -0.217340
     7  F   -0.226802
     8  O   -0.550917
     9  O   -0.556129
    10  O   -0.554869
    11  O   -0.550196
    12  F   -0.218790
    13  F   -0.208649
    14  F   -0.206049
    15  F   -0.211007
    16  C    0.022077
    17  N   -0.194303
 Sum of Mulliken charges =  -1.00000

 Dipole moment (field-independent basis, Debye):
    X=             -0.6812    Y=              0.3387    Z=             -1.0641  Tot=              1.3081
 Quadrupole moment (field-independent basis, Debye-Ang):
   XX=           -137.1130   YY=           -117.3702   ZZ=           -127.0043
   XY=              1.2332   XZ=              0.0528   YZ=              2.5065

 Normal termination of Gaussian 09 at Sat Feb 13 10:12:26 2021.
