 Gaussian 09, Revision E.01,
 Gaussian 09:  ES64L-G09RevE.01 30-Nov-2015

 ----------------------------------------------------------------------
 # RMP2=(full,semidirect)/cc-pVTZ int=ultrafine symmetry=none scf=(conv
 er=10)
 ----------------------------------------------------------------------

 ------------------
 CCNTf2_358_94TSMP2
 ------------------
 Symbolic Z-matrix:
 Charge = -1 Multiplicity = 1

                          Input orientation:
 ---------------------------------------------------------------------
 Center     Atomic      Atomic             Coordinates (Angstroms)
 Number     Number       Type             X           Y           Z
 ---------------------------------------------------------------------
      1          6           0       -0.043232    0.032893   -0.083600
      2         16           0        0.004405    0.068099    1.685922
      3         16           0        1.254719    0.056516   -1.175878
      4          6           0        1.818012    0.066569    2.304385
      5          6           0        1.629777   -1.760048   -1.586802
      6          9           0        2.682921   -1.840437   -2.418968
      7          9           0        1.703214   -0.092654    3.636641
      8          8           0        2.482608    0.517584   -0.529337
      9          8           0        0.831200    0.583229   -2.471107
     10          8           0       -0.520211    1.339359    2.189387
     11          8           0       -0.544777   -1.177472    2.227455
     12          9           0        2.440680    1.217326    2.085007
     13          9           0        0.577831   -2.336073   -2.182904
     14          9           0        2.533928   -0.949689    1.831694
     15          9           0        1.918166   -2.456838   -0.479683
     16          6           0       -1.345210   -0.104946   -0.580485
     17          7           0       -2.433383   -0.215195   -0.972096
 ---------------------------------------------------------------------

 SCF Done:  E(RHF) =  -1897.41112894     A.U. after   22 cycles
 E2 =    -0.3918691619D+01 EUMP2 =    -0.19013298205587D+04

 Alpha  occ. eigenvalues --  -92.10297 -92.10272 -26.25741 -26.25449 -26.25333
 Alpha  occ. eigenvalues --  -26.25241 -26.25210 -26.25130 -20.45261 -20.44989
 Alpha  occ. eigenvalues --  -20.44563 -20.44548 -15.44261 -11.43923 -11.42580
 Alpha  occ. eigenvalues --  -11.16963 -11.16313  -9.07008  -9.06921  -6.75533
 Alpha  occ. eigenvalues --   -6.75416  -6.75408  -6.75385  -6.75370  -6.75363
 Alpha  occ. eigenvalues --   -1.64627  -1.63941  -1.55508  -1.54803  -1.54642
 Alpha  occ. eigenvalues --   -1.54560  -1.35005  -1.34101  -1.23995  -1.22932
 Alpha  occ. eigenvalues --   -1.09556  -0.98107  -0.91096  -0.89488  -0.81296
 Alpha  occ. eigenvalues --   -0.78442  -0.74004  -0.73806  -0.73363  -0.73185
 Alpha  occ. eigenvalues --   -0.71941  -0.68929  -0.62666  -0.62511  -0.62232
 Alpha  occ. eigenvalues --   -0.61933  -0.60429  -0.58559  -0.58284  -0.57572
 Alpha  occ. eigenvalues --   -0.57386  -0.57206  -0.56366  -0.56038  -0.55427
 Alpha  occ. eigenvalues --   -0.54037  -0.53333  -0.53197  -0.44288  -0.42400
 Alpha  occ. eigenvalues --   -0.41655  -0.40901  -0.39991  -0.38343  -0.37814
 Alpha  occ. eigenvalues --   -0.36896  -0.36501  -0.35587  -0.32726  -0.23882
 Alpha virt. eigenvalues --    0.24131   0.28192   0.29941   0.32779   0.34918
 Alpha virt. eigenvalues --    0.35009   0.36170   0.37421   0.39152   0.40958
 Alpha virt. eigenvalues --    0.41303   0.42306   0.43804   0.46728   0.49055

 Mulliken charges:
               1
     1  C   -0.433957
     2  S    0.967395
     3  S    0.966633
     4  C    0.596605
     5  C    0.591113
     6  F   -0.225212
     7  F   -0.220198
     8  O   -0.574434
     9  O   -0.548823
    10  O   -0.558830
    11  O   -0.559969
    12  F   -0.196563
    13  F   -0.215137
    14  F   -0.205277
    15  F   -0.218679
    16  C    0.021239
    17  N   -0.185907
 Sum of Mulliken charges =  -1.00000

 Dipole moment (field-independent basis, Debye):
    X=              1.1819    Y=             -0.4036    Z=              0.0444  Tot=              1.2497
 Quadrupole moment (field-independent basis, Debye-Ang):
   XX=           -131.2242   YY=           -117.4239   ZZ=           -133.4865
   XY=             -1.9407   XZ=              2.2544   YZ=              0.5396

 Normal termination of Gaussian 09 at Sun Feb 14 13:02:09 2021.
