 Gaussian 09, Revision E.01,
 Gaussian 09:  ES64L-G09RevE.01 30-Nov-2015

 ----------------------------------------------------------------------
 # opt=(maxcycles=100,verytight) freq rb3lyp/6-311+g(d,p) empiricaldisp
 ersion=gd3bj int=ultrafine scf=conver=10 symmetry=none
 ----------------------------------------------------------------------

 -----
 ANION
 -----
 Symbolic Z-matrix:
 Charge = -1 Multiplicity = 1

 SCF Done:  E(RB3LYP) =  -1232.02847547     A.U. after   16 cycles
 Optimization completed.
    -- Stationary point found.
 Normal termination of Gaussian 09 at Mon Apr 18 10:58:24 2022.

 ----------------------------------------------------------------------
 #N Geom=AllCheck Guess=TCheck SCRF=Check GenChk RB3LYP/6-311+G(d,p) Fr
 eq
 ----------------------------------------------------------------------

 Structure from the checkpoint file:  "NMs2.chk"
 -----
 ANION
 -----
 Charge = -1 Multiplicity = 1

                          Input orientation:
 ---------------------------------------------------------------------
 Center     Atomic      Atomic             Coordinates (Angstroms)
 Number     Number       Type             X           Y           Z
 ---------------------------------------------------------------------
      1          7           0       -0.513967   -0.000152    0.000277
      2         16           0        0.297615   -0.207291    1.392781
      3         16           0        0.295847    0.207319   -1.393206
      4          6           0        1.013643    1.403488    1.803625
      5          6           0        1.012044   -1.403166   -1.804912
      6          1           0        1.557530   -1.282233   -2.740675
      7          1           0        1.560307    1.282782    2.738729
      8          8           0        1.442718    1.143040   -1.282462
      9          8           0       -0.698788    0.504435   -2.436926
     10          8           0       -0.695637   -0.504819    2.437702
     11          8           0        1.444737   -1.142539    1.280651
     12          1           0        0.191852    2.108675    1.916273
     13          1           0        0.190407   -2.108691   -1.916570
     14          1           0        1.665159    1.690418    0.980295
     15          1           0        1.664669   -1.689827   -0.982369
 ---------------------------------------------------------------------

 SCF Done:  E(RB3LYP) =  -1232.02847547     A.U. after    1 cycles

 Alpha  occ. eigenvalues --  -88.91229 -88.91229 -18.96205 -18.96205 -18.96052
 Alpha  occ. eigenvalues --  -18.96052 -14.15604 -10.06363 -10.06363  -7.97323
 Alpha  occ. eigenvalues --   -7.97322  -5.93601  -5.93600  -5.93551  -5.93550
 Alpha  occ. eigenvalues --   -5.93459  -5.93458  -0.97003  -0.95361  -0.84962
 Alpha  occ. eigenvalues --   -0.84725  -0.75144  -0.63520  -0.61325  -0.51931
 Alpha  occ. eigenvalues --   -0.42362  -0.38042  -0.34713  -0.34132  -0.32704
 Alpha  occ. eigenvalues --   -0.32341  -0.31376  -0.30227  -0.29222  -0.28330
 Alpha  occ. eigenvalues --   -0.22643  -0.19736  -0.19177  -0.17232  -0.16769
 Alpha  occ. eigenvalues --   -0.16236  -0.15875  -0.14557  -0.12334  -0.12247
 Alpha virt. eigenvalues --    0.11222   0.11989   0.15373   0.15581   0.15979
 Alpha virt. eigenvalues --    0.16666   0.16717   0.18155   0.18548   0.18596
 Alpha virt. eigenvalues --    0.19231   0.19949   0.20860   0.21940   0.22559

 Mulliken charges:
               1
     1  N   -0.479494
     2  S    0.366800
     3  S    0.366800
     4  C   -0.588159
     5  C   -0.588159
     6  H    0.168345
     7  H    0.168345
     8  O   -0.364193
     9  O   -0.255674
    10  O   -0.255674
    11  O   -0.364193
    12  H    0.179941
    13  H    0.179941
    14  H    0.232686
    15  H    0.232686
 Sum of Mulliken charges =  -1.00000

 Dipole moment (field-independent basis, Debye):
    X=              0.6966    Y=              0.0004    Z=             -0.0003  Tot=              0.6966
 Quadrupole moment (field-independent basis, Debye-Ang):
   XX=            -82.0827   YY=            -74.8368   ZZ=            -92.5096
   XY=              0.0071   XZ=             -0.0093   YZ=             14.2596

  Exact polarizability:  82.430   0.002  88.170   0.014   4.577 107.760
 Approx polarizability: 135.793   0.001 125.919   0.005  -1.001 144.326

                      1                      2                      3
                      A                      A                      A
 Frequencies --     74.6124               131.6749               174.0847
 Red. masses --      5.3955                 4.6991                 8.3871
 Frc consts  --      0.0177                 0.0480                 0.1498
 IR Inten    --      7.1445                12.5351                 0.0823

                      4                      5                      6
                      A                      A                      A
 Frequencies --    233.5348               238.8679               244.6345
 Red. masses --      1.2042                 1.0530                 2.3828
 Frc consts  --      0.0387                 0.0354                 0.0840
 IR Inten    --      0.1040                 0.8494                 0.4484

                      7                      8                      9
                      A                      A                      A
 Frequencies --    279.5715               305.1812               342.1730
 Red. masses --      5.5671                 5.5445                 3.7421
 Frc consts  --      0.2564                 0.3042                 0.2581
 IR Inten    --      1.8993                 0.6171                 2.1217

                     10                     11                     12
                      A                      A                      A
 Frequencies --    353.2600               390.1019               477.2719
 Red. masses --      6.7375                 7.4916                 7.3092
 Frc consts  --      0.4954                 0.6717                 0.9810
 IR Inten    --      1.6569                 2.5021                 2.6047

                     13                     14                     15
                      A                      A                      A
 Frequencies --    489.9212               524.3349               548.3416
 Red. masses --     10.1543                 7.3916                 7.3295
 Frc consts  --      1.4360                 1.1973                 1.2985
 IR Inten    --     89.0692                72.2785                 0.0150

                     16                     17                     18
                      A                      A                      A
 Frequencies --    647.9736               722.2271               775.0880
 Red. masses --      7.7152                 7.6099                 7.6644
 Frc consts  --      1.9086                 2.3387                 2.7129
 IR Inten    --      8.7608               150.5056                56.4249

                     19                     20                     21
                      A                      A                      A
 Frequencies --    967.6542               978.3149               981.3074
 Red. masses --      2.5054                 1.4952                 1.7012
 Frc consts  --      1.3822                 0.8431                 0.9652
 IR Inten    --    271.5204                 0.4033                35.0357

                     22                     23                     24
                      A                      A                      A
 Frequencies --    997.8831               999.1465              1060.3465
 Red. masses --      1.4546                 1.7903                10.5017
 Frc consts  --      0.8534                 1.0530                 6.9568
 IR Inten    --      3.2005               165.6403               568.8538

                     25                     26                     27
                      A                      A                      A
 Frequencies --   1092.6470              1210.6719              1228.4407
 Red. masses --      6.7402                14.1539                12.1771
 Frc consts  --      4.7411                12.2230                10.8268
 IR Inten    --     27.5853               252.1700               393.0760

                     28                     29                     30
                      A                      A                      A
 Frequencies --   1334.6945              1335.4029              1450.0456
 Red. masses --      1.2142                 1.2221                 1.0459
 Frc consts  --      1.2744                 1.2841                 1.2957
 IR Inten    --     22.4329                 0.0630                 0.0400

                     31                     32                     33
                      A                      A                      A
 Frequencies --   1451.5410              1468.4814              1470.6087
 Red. masses --      1.0495                 1.0528                 1.0518
 Frc consts  --      1.3029                 1.3376                 1.3403
 IR Inten    --      2.8993                 7.6002                 2.0353

                     34                     35                     36
                      A                      A                      A
 Frequencies --   3052.4014              3052.5953              3152.0979
 Red. masses --      1.0277                 1.0277                 1.1061
 Frc consts  --      5.6415                 5.6420                 6.4750
 IR Inten    --     43.6414                 1.3983                 7.2384

                     37                     38                     39
                      A                      A                      A
 Frequencies --   3152.2565              3165.5529              3165.8900
 Red. masses --      1.1058                 1.1074                 1.1072
 Frc consts  --      6.4742                 6.5379                 6.5382
 IR Inten    --      8.1327                 0.4475                 2.7682

 - Thermochemistry -
 -------------------
 Temperature   298.150 Kelvin.  Pressure   1.00000 Atm.
 Atom     1 has atomic number  7 and mass  14.00307

 Molecular mass:   171.97383 amu.
 Principal axes and moments of inertia in atomic units:
                           1         2         3
     Eigenvalues --   774.589962042.024772097.03200
           X            0.00062  -0.00016   1.00000
           Y           -0.07153   0.99744   0.00021
           Z            0.99744   0.07153  -0.00060
 This molecule is an asymmetric top.
 Rotational symmetry number  1.
 Warning -- assumption of classical behavior for rotation
           may cause significant error
 Rotational temperatures (Kelvin)      0.11182     0.04242     0.04130
 Rotational constants (GHZ):           2.32993     0.88380     0.86062
 Zero-point vibrational energy     261508.7 (Joules/Mol)
                                   62.50207 (Kcal/Mol)
 Warning -- explicit consideration of  15 degrees of freedom as
           vibrations may cause significant error
 Vibrational temperatures:    107.35   189.45   250.47   336.00   343.68
          (Kelvin)            351.97   402.24   439.09   492.31   508.26
                              561.27   686.69   704.89   754.40   788.94
                              932.29  1039.12  1115.18  1392.24  1407.58
                             1411.88  1435.73  1437.55  1525.60  1572.07
                             1741.88  1767.45  1920.33  1921.34  2086.29
                             2088.44  2112.81  2115.88  4391.72  4392.00
                             4535.16  4535.39  4554.52  4555.00

 Zero-point correction=                           0.099603 (Hartree/Particle)
 Thermal correction to Energy=                    0.109432
 Thermal correction to Enthalpy=                  0.110376
 Thermal correction to Gibbs Free Energy=         0.064661
 Sum of electronic and zero-point Energies=          -1231.928872
 Sum of electronic and thermal Energies=             -1231.919044
 Sum of electronic and thermal Enthalpies=           -1231.918100
 Sum of electronic and thermal Free Energies=        -1231.963815

                     E (Thermal)             CV                S
                      KCal/Mol        Cal/Mol-Kelvin    Cal/Mol-Kelvin
 Total                   68.669             35.984             96.216
 Electronic               0.000              0.000              0.000
 Translational            0.889              2.981             41.334
 Rotational               0.889              2.981             29.585
 Vibrational             66.892             30.022             25.297
 Vibration     1          0.599              1.966              4.028
 Vibration     2          0.612              1.922              2.921
 Vibration     3          0.627              1.874              2.391
 Vibration     4          0.654              1.790              1.852
 Vibration     5          0.657              1.781              1.811
 Vibration     6          0.660              1.772              1.769
 Vibration     7          0.680              1.711              1.536
 Vibration     8          0.696              1.664              1.388
 Vibration     9          0.721              1.591              1.202
 Vibration    10          0.729              1.569              1.152
 Vibration    11          0.758              1.491              1.000
 Vibration    12          0.834              1.300              0.717
 Vibration    13          0.846              1.272              0.684
 Vibration    14          0.879              1.196              0.600
 Vibration    15          0.904              1.143              0.548

 Optimization completed.
    -- Stationary point found.
 Normal termination of Gaussian 09 at Mon Apr 18 10:59:34 2022.
