 Gaussian 09, Revision E.01,
 Gaussian 09:  ES64L-G09RevE.01 30-Nov-2015

 ----------------------------------------------------------------------
 # opt=(maxcycles=100,verytight) freq rb3lyp/6-311+g(d,p) empiricaldisp
 ersion=gd3bj int=ultrafine scf=conver=10 symmetry=none
 ----------------------------------------------------------------------

 -----
 ANION
 -----
 Symbolic Z-matrix:
 Charge = -1 Multiplicity = 1

 SCF Done:  E(RB3LYP) =  -1094.56572573     A.U. after   18 cycles
 Optimization completed.
    -- Stationary point found.
 Normal termination of Gaussian 09 at Wed Apr  6 17:19:17 2022.

 ----------------------------------------------------------------------
 #N Geom=AllCheck Guess=TCheck SCRF=Check GenChk RB3LYP/6-311+G(d,p) Fr
 eq
 ----------------------------------------------------------------------

 Structure from the checkpoint file:  "NMsTFA.chk"
 -----
 ANION
 -----
 Charge = -1 Multiplicity = 1

                          Input orientation:
 ---------------------------------------------------------------------
 Center     Atomic      Atomic             Coordinates (Angstroms)
 Number     Number       Type             X           Y           Z
 ---------------------------------------------------------------------
      1          1           0        0.096764    0.005508    0.090511
      2          6           0        0.073272    0.192431    1.163970
      3         16           0        1.764549   -0.076772    1.758187
      4          7           0        1.766890    0.264434    3.371244
      5          6           0        0.841950   -0.290484    4.145859
      6          6           0        1.023223    0.123339    5.639292
      7          8           0        2.594847    0.948364    1.104385
      8          8           0        2.097319   -1.486726    1.483487
      9          9           0        2.194052    0.713538    5.945480
     10          8           0       -0.135708   -1.010199    3.921783
     11          9           0        0.906365   -0.949665    6.460247
     12          9           0        0.042327    0.996577    6.008728
     13          1           0       -0.193434    1.228507    1.369349
     14          1           0       -0.581183   -0.499174    1.688000
 ---------------------------------------------------------------------

 SCF Done:  E(RB3LYP) =  -1094.56572573     A.U. after    1 cycles

 Alpha  occ. eigenvalues --  -88.91304 -24.58735 -24.58698 -24.58669 -18.96425
 Alpha  occ. eigenvalues --  -18.96245 -18.96156 -14.16422 -10.29420 -10.14828
 Alpha  occ. eigenvalues --  -10.06963  -7.97467  -5.93722  -5.93677  -5.93621
 Alpha  occ. eigenvalues --   -1.19136  -1.10370  -1.10246  -0.96567  -0.90425
 Alpha  occ. eigenvalues --   -0.85100  -0.76110  -0.63530  -0.60433  -0.53007
 Alpha  occ. eigenvalues --   -0.47401  -0.47112  -0.45747  -0.39623  -0.35194
 Alpha  occ. eigenvalues --   -0.35099  -0.34215  -0.33584  -0.32701  -0.31645
 Alpha  occ. eigenvalues --   -0.31182  -0.30571  -0.29572  -0.29065  -0.28621
 Alpha  occ. eigenvalues --   -0.26251  -0.21168  -0.18581  -0.16979  -0.15760
 Alpha  occ. eigenvalues --   -0.14429  -0.12966  -0.11939
 Alpha virt. eigenvalues --    0.11028   0.12006   0.13409   0.15071   0.15824
 Alpha virt. eigenvalues --    0.16333   0.16778   0.17155   0.18481   0.19050
 Alpha virt. eigenvalues --    0.19669   0.21019   0.21384   0.22369   0.23650

 Mulliken charges:
               1
     1  H    0.177245
     2  C   -0.642470
     3  S    0.552930
     4  N   -0.284397
     5  C   -0.112472
     6  C    0.333703
     7  O   -0.311030
     8  O   -0.297533
     9  F   -0.149785
    10  O   -0.346649
    11  F   -0.157995
    12  F   -0.163079
    13  H    0.178534
    14  H    0.222997
 Sum of Mulliken charges =  -1.00000

 Dipole moment (field-independent basis, Debye):
    X=             -8.7597    Y=              1.6884    Z=            -15.6037  Tot=             17.9739
 Quadrupole moment (field-independent basis, Debye-Ang):
   XX=            -96.2024   YY=            -82.0623   ZZ=           -141.8281
   XY=             -2.4765   XZ=            -16.0739   YZ=              4.6492

  Exact polarizability:  79.830   4.829  71.933  -5.183  -2.411  95.644
 Approx polarizability: 121.824  15.202 115.255  -9.645  -4.440 116.930

                      1                      2                      3
                      A                      A                      A
 Frequencies --     12.8824                53.7182               100.1644
 Red. masses --     13.8433                 7.5873                 7.1909
 Frc consts  --      0.0014                 0.0129                 0.0425
 IR Inten    --      0.9049                 3.0756                 0.6739

                      4                      5                      6
                      A                      A                      A
 Frequencies --    136.4451               197.7724               221.5775
 Red. masses --      9.3861                 1.2252                 4.0968
 Frc consts  --      0.1030                 0.0282                 0.1185
 IR Inten    --      2.7860                 0.1473                 2.3413

                      7                      8                      9
                      A                      A                      A
 Frequencies --    253.8330               293.3398               307.6023
 Red. masses --     10.0621                 7.2063                10.3195
 Frc consts  --      0.3820                 0.3653                 0.5753
 IR Inten    --      1.3570                 0.6820                 3.7490

                     10                     11                     12
                      A                      A                      A
 Frequencies --    327.5257               400.5251               439.3256
 Red. masses --      4.7890                10.5923                11.5143
 Frc consts  --      0.3027                 1.0011                 1.3094
 IR Inten    --      0.3738                 4.6652                 5.5249

                     13                     14                     15
                      A                      A                      A
 Frequencies --    483.8940               493.7749               526.4557
 Red. masses --      8.6971                 9.1330                14.5411
 Frc consts  --      1.1999                 1.3120                 2.3745
 IR Inten    --     47.0724                39.0211                11.1854

                     16                     17                     18
                      A                      A                      A
 Frequencies --    567.0422               695.2149               716.7980
 Red. masses --     14.5804                 8.2566                13.8271
 Frc consts  --      2.7622                 2.3512                 4.1858
 IR Inten    --      6.8363                20.5124                 3.0385

                     19                     20                     21
                      A                      A                      A
 Frequencies --    782.6463               789.0677               871.4339
 Red. masses --     12.3053                10.5034                 8.5168
 Frc consts  --      4.4409                 3.8531                 3.8106
 IR Inten    --     23.5028               152.8138               111.9610

                     22                     23                     24
                      A                      A                      A
 Frequencies --    974.6933               990.5747              1084.4076
 Red. masses --      1.3857                 1.5252                12.3664
 Frc consts  --      0.7756                 0.8818                 8.5680
 IR Inten    --      8.5357                10.1969               185.0228

                     25                     26                     27
                      A                      A                      A
 Frequencies --   1094.0059              1145.5229              1198.0514
 Red. masses --      9.5862                12.9334                13.1919
 Frc consts  --      6.7598                 9.9993                11.1560
 IR Inten    --    410.6731               327.3921               397.8016

                     28                     29                     30
                      A                      A                      A
 Frequencies --   1236.9440              1324.0344              1367.2727
 Red. masses --     14.7779                 1.2197                12.3699
 Frc consts  --     13.3218                 1.2598                13.6247
 IR Inten    --    297.5447                23.3443                56.0119

                     31                     32                     33
                      A                      A                      A
 Frequencies --   1446.0264              1470.0946              1688.2413
 Red. masses --      1.0513                 1.0539                11.9603
 Frc consts  --      1.2952                 1.3419                20.0846
 IR Inten    --      9.6111                 5.4201               534.3412

                     34                     35                     36
                      A                      A                      A
 Frequencies --   3055.0493              3149.3012              3177.1332
 Red. masses --      1.0282                 1.1058                 1.1067
 Frc consts  --      5.6539                 6.4616                 6.5818
 IR Inten    --     16.6670                 9.2129                 0.5180

 - Thermochemistry -
 -------------------
 Temperature   298.150 Kelvin.  Pressure   1.00000 Atm.
 Atom     1 has atomic number  1 and mass   1.00783

 Molecular mass:   189.97857 amu.
 Principal axes and moments of inertia in atomic units:
                           1         2         3
     Eigenvalues --   895.462243286.518023460.01150
           X           -0.17162   0.83684  -0.51986
           Y            0.03893   0.53304   0.84520
           Z            0.98439   0.12481  -0.12406
 This molecule is an asymmetric top.
 Rotational symmetry number  1.
 Warning -- assumption of classical behavior for rotation
           may cause significant error
 Rotational temperatures (Kelvin)      0.09673     0.02635     0.02503
 Rotational constants (GHZ):           2.01543     0.54913     0.52160
 Zero-point vibrational energy     197816.8 (Joules/Mol)
                                   47.27936 (Kcal/Mol)
 Warning -- explicit consideration of  16 degrees of freedom as
           vibrations may cause significant error
 Vibrational temperatures:     18.53    77.29   144.11   196.31   284.55
          (Kelvin)            318.80   365.21   422.05   442.57   471.24
                              576.27   632.09   696.21   710.43   757.45
                              815.85  1000.26  1031.31  1126.05  1135.29
                             1253.80  1402.36  1425.21  1560.22  1574.03
                             1648.15  1723.73  1779.68  1904.99  1967.20
                             2080.51  2115.14  2429.00  4395.53  4531.14
                             4571.18

 Zero-point correction=                           0.075344 (Hartree/Particle)
 Thermal correction to Energy=                    0.086213
 Thermal correction to Enthalpy=                  0.087157
 Thermal correction to Gibbs Free Energy=         0.036449
 Sum of electronic and zero-point Energies=          -1094.490381
 Sum of electronic and thermal Energies=             -1094.479513
 Sum of electronic and thermal Enthalpies=           -1094.478569
 Sum of electronic and thermal Free Energies=        -1094.529277

                     E (Thermal)             CV                S
                      KCal/Mol        Cal/Mol-Kelvin    Cal/Mol-Kelvin
 Total                   54.099             37.856            106.724
 Electronic               0.000              0.000              0.000
 Translational            0.889              2.981             41.631
 Rotational               0.889              2.981             30.699
 Vibrational             52.322             31.894             34.394
 Vibration     1          0.593              1.987              7.508
 Vibration     2          0.596              1.976              4.676
 Vibration     3          0.604              1.949              3.451
 Vibration     4          0.614              1.917              2.853
 Vibration     5          0.637              1.843              2.154
 Vibration     6          0.648              1.808              1.946
 Vibration     7          0.665              1.756              1.704
 Vibration     8          0.688              1.686              1.455
 Vibration     9          0.697              1.659              1.375
 Vibration    10          0.711              1.620              1.272
 Vibration    11          0.766              1.469              0.961
 Vibration    12          0.799              1.384              0.829
 Vibration    13          0.840              1.286              0.700
 Vibration    14          0.849              1.264              0.674
 Vibration    15          0.881              1.191              0.595
 Vibration    16          0.923              1.103              0.510

 Optimization completed.
    -- Stationary point found.
 Normal termination of Gaussian 09 at Wed Apr  6 17:33:11 2022.
