 Gaussian 09, Revision E.01,
 Gaussian 09:  ES64L-G09RevE.01 30-Nov-2015

 ----------------------------------------------------------------------
 # RMP2=(full,semidirect)/cc-pVTZ int=ultrafine symmetry=none scf=(conv
 er=10)
 ----------------------------------------------------------------------

 ------------------
 NSO2CN_80_150TSMP2
 ------------------
 Symbolic Z-matrix:
 Charge = -1 Multiplicity = 1

                          Input orientation:
 ---------------------------------------------------------------------
 Center     Atomic      Atomic             Coordinates (Angstroms)
 Number     Number       Type             X           Y           Z
 ---------------------------------------------------------------------
      1          6           0        0.194129    0.012829    0.107343
      2         16           0        0.097005    0.054996    1.906638
      3          7           0        1.625230    0.017812    2.357871
      4         16           0        2.628385    1.280238    2.381504
      5          6           0        3.635195    0.690005    3.745199
      6          8           0       -0.634197    1.283568    2.178632
      7          8           0        2.077500    2.548056    2.838864
      8          8           0       -0.502179   -1.225521    2.246831
      9          8           0        3.536094    1.291042    1.241209
     10          7           0        0.218819   -0.015556   -1.047287
     11          7           0        4.330718    0.393487    4.618047
 ---------------------------------------------------------------------

 SCF Done:  E(RHF) =  -1333.72077703     A.U. after   19 cycles
 E2 =    -0.2401768686D+01 EUMP2 =    -0.13361225457123D+04

 Alpha  occ. eigenvalues --  -92.12827 -92.12542 -20.44884 -20.44728 -20.44547
 Alpha  occ. eigenvalues --  -20.44432 -15.49229 -15.48662 -15.46546 -11.19154
 Alpha  occ. eigenvalues --  -11.18428  -9.08967  -9.08632  -6.77582  -6.77454
 Alpha  occ. eigenvalues --   -6.77384  -6.77249  -6.77132  -6.77077  -1.36621
 Alpha  occ. eigenvalues --   -1.34806  -1.23662  -1.23382  -1.13249  -1.12609
 Alpha  occ. eigenvalues --   -1.10927  -0.87685  -0.77494  -0.68407  -0.61541
 Alpha  occ. eigenvalues --   -0.59202  -0.55479  -0.53836  -0.49159  -0.48537
 Alpha  occ. eigenvalues --   -0.47699  -0.42651  -0.42108  -0.41568  -0.40807
 Alpha  occ. eigenvalues --   -0.40634  -0.39765  -0.38010  -0.37704  -0.37268
 Alpha  occ. eigenvalues --   -0.36385  -0.35996  -0.33416  -0.31591
 Alpha virt. eigenvalues --    0.24136   0.25593   0.25747   0.27705   0.28544
 Alpha virt. eigenvalues --    0.31111   0.35800   0.37287   0.42327   0.42435
 Alpha virt. eigenvalues --    0.45045   0.45814   0.49396   0.50185   0.51962

 Mulliken charges:
               1
     1  C   -0.127690
     2  S    1.099881
     3  N   -0.603788
     4  S    1.117441
     5  C   -0.101753
     6  O   -0.534039
     7  O   -0.531615
     8  O   -0.546493
     9  O   -0.548442
    10  N   -0.109258
    11  N   -0.114244
 Sum of Mulliken charges =  -1.00000

 Dipole moment (field-independent basis, Debye):
    X=             -7.1724    Y=             -3.0130    Z=             -9.6301  Tot=             12.3799
 Quadrupole moment (field-independent basis, Debye-Ang):
   XX=           -112.4498   YY=            -92.3636   ZZ=           -119.1561
   XY=             -8.2064   XZ=            -22.4019   YZ=             -7.0647

 Normal termination of Gaussian 09 at Sat Feb 13 10:01:35 2021.
