 Gaussian 09, Revision E.01,
 Gaussian 09:  ES64L-G09RevE.01 30-Nov-2015

 ----------------------------------------------------------------------
 # RMP2=(full,semidirect)/cc-pVTZ int=ultrafine symmetry=none scf=(conv
 er=10)
 ----------------------------------------------------------------------

 ------------------
 NSO2CN_63_248GSMP2
 ------------------
 Symbolic Z-matrix:
 Charge = -1 Multiplicity = 1

                          Input orientation:
 ---------------------------------------------------------------------
 Center     Atomic      Atomic             Coordinates (Angstroms)
 Number     Number       Type             X           Y           Z
 ---------------------------------------------------------------------
      1          6           0        0.285840    0.040153    0.041927
      2         16           0        0.127572    0.031932    1.835984
      3          7           0        1.638821   -0.036461    2.372427
      4         16           0        2.721291    1.121951    2.112223
      5          6           0        3.839881    0.252959    1.003999
      6          8           0       -0.588938    1.262598    2.136137
      7          8           0        3.526201    1.333468    3.304322
      8          8           0       -0.501772   -1.245860    2.129885
      9          8           0        2.263382    2.266814    1.334880
     10          7           0        0.354627    0.009730   -1.110586
     11          7           0        4.587690   -0.267203    0.293857
 ---------------------------------------------------------------------

 SCF Done:  E(RHF) =  -1333.72357249     A.U. after   19 cycles
 E2 =    -0.2403021885D+01 EUMP2 =    -0.13361265943705D+04

 Alpha  occ. eigenvalues --  -92.12741 -92.12435 -20.45122 -20.44850 -20.44475
 Alpha  occ. eigenvalues --  -20.44451 -15.48872 -15.48816 -15.46590 -11.18679
 Alpha  occ. eigenvalues --  -11.18532  -9.08880  -9.08571  -6.77482  -6.77378
 Alpha  occ. eigenvalues --   -6.77314  -6.77198  -6.77051  -6.77005  -1.36737
 Alpha  occ. eigenvalues --   -1.34830  -1.23980  -1.23380  -1.12910  -1.12661
 Alpha  occ. eigenvalues --   -1.10807  -0.86599  -0.78351  -0.68465  -0.61918
 Alpha  occ. eigenvalues --   -0.58688  -0.55706  -0.53771  -0.48800  -0.48615
 Alpha  occ. eigenvalues --   -0.47618  -0.42363  -0.41927  -0.41788  -0.41413
 Alpha  occ. eigenvalues --   -0.40403  -0.39014  -0.38639  -0.37630  -0.36892
 Alpha  occ. eigenvalues --   -0.36356  -0.35950  -0.33479  -0.31883
 Alpha virt. eigenvalues --    0.24991   0.25393   0.26084   0.26652   0.29092
 Alpha virt. eigenvalues --    0.31569   0.35765   0.38707   0.41266   0.42981
 Alpha virt. eigenvalues --    0.44712   0.45780   0.49326   0.50751   0.52343

 Mulliken charges:
               1
     1  C   -0.141201
     2  S    1.124745
     3  N   -0.599360
     4  S    1.103357
     5  C   -0.114205
     6  O   -0.541027
     7  O   -0.542181
     8  O   -0.546615
     9  O   -0.538024
    10  N   -0.097133
    11  N   -0.108357
 Sum of Mulliken charges =  -1.00000

 Dipole moment (field-independent basis, Debye):
    X=             -7.6850    Y=             -2.2740    Z=             -6.9437  Tot=             10.6041
 Quadrupole moment (field-independent basis, Debye-Ang):
   XX=           -114.9576   YY=            -91.4511   ZZ=           -105.6999
   XY=             -5.5589   XZ=            -10.3847   YZ=             -5.6737

 Normal termination of Gaussian 09 at Sat Feb 13 09:55:58 2021.
