 Gaussian 09, Revision E.01,
 Gaussian 09:  ES64L-G09RevE.01 30-Nov-2015

 ----------------------------------------------------------------------
 # RMP2=(full,semidirect)/cc-pVTZ int=ultrafine symmetry=none scf=(conv
 er=10)
 ----------------------------------------------------------------------

 -----------------
 NSO2CN_75_75GSMP2
 -----------------
 Symbolic Z-matrix:
 Charge = -1 Multiplicity = 1

                          Input orientation:
 ---------------------------------------------------------------------
 Center     Atomic      Atomic             Coordinates (Angstroms)
 Number     Number       Type             X           Y           Z
 ---------------------------------------------------------------------
      1          6           0        0.186919    0.199872    0.141946
      2         16           0        0.114537    0.043750    1.932841
      3          7           0        1.650075   -0.135481    2.379204
      4         16           0        2.665412    1.112873    2.378675
      5          6           0        2.183343    2.079301    3.817605
      6          8           0       -0.515338    1.280134    2.380676
      7          8           0        2.510966    2.030229    1.255937
      8          8           0       -0.565702   -1.224288    2.136808
      9          8           0        3.987337    0.619564    2.727113
     10          7           0        0.166726    0.254010   -1.011355
     11          7           0        1.952830    2.712325    4.755467
 ---------------------------------------------------------------------

 SCF Done:  E(RHF) =  -1333.72720466     A.U. after   19 cycles
 E2 =    -0.2402604097D+01 EUMP2 =    -0.13361298087583D+04

 Alpha  occ. eigenvalues --  -92.12492 -92.12491 -20.44911 -20.44910 -20.44719
 Alpha  occ. eigenvalues --  -20.44719 -15.48647 -15.48646 -15.46770 -11.18514
 Alpha  occ. eigenvalues --  -11.18513  -9.08668  -9.08667  -6.77277  -6.77277
 Alpha  occ. eigenvalues --   -6.77148  -6.77148  -6.77105  -6.77104  -1.36820
 Alpha  occ. eigenvalues --   -1.34920  -1.23929  -1.23667  -1.12628  -1.12526
 Alpha  occ. eigenvalues --   -1.10743  -0.86310  -0.77850  -0.69927  -0.60776
 Alpha  occ. eigenvalues --   -0.59025  -0.56068  -0.53570  -0.48604  -0.48487
 Alpha  occ. eigenvalues --   -0.47625  -0.42900  -0.42492  -0.41162  -0.41065
 Alpha  occ. eigenvalues --   -0.40179  -0.39486  -0.38121  -0.37460  -0.36850
 Alpha  occ. eigenvalues --   -0.36322  -0.35967  -0.33351  -0.32547
 Alpha virt. eigenvalues --    0.24420   0.25604   0.26992   0.27606   0.29127
 Alpha virt. eigenvalues --    0.30837   0.35333   0.41184   0.42026   0.43018
 Alpha virt. eigenvalues --    0.43353   0.46267   0.48438   0.50678   0.52014

 Mulliken charges:
               1
     1  C   -0.115463
     2  S    1.108272
     3  N   -0.592093
     4  S    1.108283
     5  C   -0.115453
     6  O   -0.546988
     7  O   -0.546990
     8  O   -0.542222
     9  O   -0.542228
    10  N   -0.107559
    11  N   -0.107559
 Sum of Mulliken charges =  -1.00000

 Dipole moment (field-independent basis, Debye):
    X=             -6.2385    Y=             -3.9788    Z=             -9.9782  Tot=             12.4223
 Quadrupole moment (field-independent basis, Debye-Ang):
   XX=           -105.0365   YY=            -95.3802   ZZ=           -120.9791
   XY=             -9.3686   XZ=            -17.1084   YZ=            -13.3119

 Normal termination of Gaussian 09 at Sat Feb 13 09:56:48 2021.
