 Gaussian 09, Revision E.01,
 Gaussian 09:  ES64L-G09RevE.01 30-Nov-2015

 ----------------------------------------------------------------------
 # RMP2=(full,semidirect)/cc-pVTZ int=ultrafine symmetry=none scf=(conv
 er=10)
 ----------------------------------------------------------------------

 ----------------
 NSO2CN_2_79TSMP2
 ----------------
 Symbolic Z-matrix:
 Charge = -1 Multiplicity = 1

                          Input orientation:
 ---------------------------------------------------------------------
 Center     Atomic      Atomic             Coordinates (Angstroms)
 Number     Number       Type             X           Y           Z
 ---------------------------------------------------------------------
      1          6           0        0.193787   -0.026223   -0.036424
      2         16           0        0.136070    0.027803    1.765258
      3          7           0        1.638468   -0.021611    2.324512
      4         16           0        3.005150   -0.061423    1.535578
      5          6           0        3.280630    1.649313    1.042958
      6          8           0       -0.478582    1.319381    2.043700
      7          8           0        2.964739   -0.775234    0.264278
      8          8           0       -0.586637   -1.181142    2.134947
      9          8           0        4.084081   -0.324176    2.472636
     10          7           0        0.043274   -0.017963   -1.181090
     11          7           0        3.467212    2.744904    0.727336
 ---------------------------------------------------------------------

 SCF Done:  E(RHF) =  -1333.71686137     A.U. after   19 cycles
 E2 =    -0.2403841984D+01 EUMP2 =    -0.13361207033543D+04

 Alpha  occ. eigenvalues --  -92.12898 -92.12808 -20.44897 -20.44714 -20.44515
 Alpha  occ. eigenvalues --  -20.44466 -15.48877 -15.48866 -15.46407 -11.18668
 Alpha  occ. eigenvalues --  -11.18595  -9.08955  -9.08937  -6.77599  -6.77577
 Alpha  occ. eigenvalues --   -6.77468  -6.77408  -6.77404  -6.77348  -1.36709
 Alpha  occ. eigenvalues --   -1.34938  -1.23863  -1.23335  -1.12854  -1.12654
 Alpha  occ. eigenvalues --   -1.11133  -0.86540  -0.78606  -0.70699  -0.61193
 Alpha  occ. eigenvalues --   -0.58585  -0.54851  -0.54558  -0.48744  -0.48632
 Alpha  occ. eigenvalues --   -0.46925  -0.42627  -0.42406  -0.41811  -0.41363
 Alpha  occ. eigenvalues --   -0.40226  -0.39233  -0.38537  -0.37591  -0.36893
 Alpha  occ. eigenvalues --   -0.36104  -0.35935  -0.34185  -0.31193
 Alpha virt. eigenvalues --    0.24278   0.25429   0.25991   0.26816   0.30045
 Alpha virt. eigenvalues --    0.30520   0.34662   0.39611   0.41399   0.42854
 Alpha virt. eigenvalues --    0.44696   0.47333   0.49407   0.49962   0.52186

 Mulliken charges:
               1
     1  C   -0.132935
     2  S    1.130198
     3  N   -0.574165
     4  S    1.089228
     5  C   -0.130572
     6  O   -0.548906
     7  O   -0.544213
     8  O   -0.549039
     9  O   -0.542081
    10  N   -0.094605
    11  N   -0.102910
 Sum of Mulliken charges =  -1.00000

 Dipole moment (field-independent basis, Debye):
    X=             -7.4655    Y=             -1.3981    Z=             -5.8850  Tot=              9.6084
 Quadrupole moment (field-independent basis, Debye-Ang):
   XX=           -113.6655   YY=            -93.8461   ZZ=           -100.6056
   XY=             -4.8005   XZ=             -9.9744   YZ=             -0.2129

 Normal termination of Gaussian 09 at Sun Feb 14 12:41:11 2021.
