 Gaussian 09, Revision E.01,
 Gaussian 09:  ES64L-G09RevE.01 30-Nov-2015

 ----------------------------------------------------------------------
 # RMP2=(full,semidirect)/cc-pVTZ int=ultrafine symmetry=none scf=(conv
 er=10)
 ----------------------------------------------------------------------

 ------------------
 NSO2CN_83_277TSMP2
 ------------------
 Symbolic Z-matrix:
 Charge = -1 Multiplicity = 1

                          Input orientation:
 ---------------------------------------------------------------------
 Center     Atomic      Atomic             Coordinates (Angstroms)
 Number     Number       Type             X           Y           Z
 ---------------------------------------------------------------------
      1          6           0        0.255558    0.076772    0.050758
      2         16           0        0.095293    0.056356    1.844135
      3          7           0        1.620132   -0.025449    2.341460
      4         16           0        2.617802    1.221821    2.509070
      5          6           0        3.249195    1.461809    0.839917
      6          8           0       -0.630516    1.281375    2.143821
      7          8           0        3.778583    0.759082    3.252294
      8          8           0       -0.526051   -1.229072    2.118950
      9          8           0        2.018097    2.504730    2.843378
     10          7           0        0.315756    0.090467   -1.102716
     11          7           0        3.678814    1.647374   -0.216165
 ---------------------------------------------------------------------

 SCF Done:  E(RHF) =  -1333.72167462     A.U. after   18 cycles
 E2 =    -0.2403792408D+01 EUMP2 =    -0.13361254670237D+04

 Alpha  occ. eigenvalues --  -92.12496 -92.12496 -20.44667 -20.44667 -20.44502
 Alpha  occ. eigenvalues --  -20.44501 -15.48909 -15.48908 -15.46704 -11.18528
 Alpha  occ. eigenvalues --  -11.18528  -9.08626  -9.08626  -6.77242  -6.77242
 Alpha  occ. eigenvalues --   -6.77116  -6.77115  -6.77062  -6.77061  -1.36584
 Alpha  occ. eigenvalues --   -1.34791  -1.23734  -1.23386  -1.12951  -1.12637
 Alpha  occ. eigenvalues --   -1.10664  -0.86361  -0.78589  -0.68574  -0.61776
 Alpha  occ. eigenvalues --   -0.58402  -0.55986  -0.53306  -0.48871  -0.48460
 Alpha  occ. eigenvalues --   -0.47576  -0.42591  -0.42157  -0.41491  -0.40870
 Alpha  occ. eigenvalues --   -0.40547  -0.38606  -0.38392  -0.37368  -0.36671
 Alpha  occ. eigenvalues --   -0.36397  -0.35656  -0.33341  -0.32510
 Alpha virt. eigenvalues --    0.24430   0.25023   0.26276   0.27034   0.29429
 Alpha virt. eigenvalues --    0.31854   0.36327   0.38546   0.41037   0.44082
 Alpha virt. eigenvalues --    0.44186   0.45060   0.48335   0.51165   0.52611

 Mulliken charges:
               1
     1  C   -0.142070
     2  S    1.107969
     3  N   -0.595964
     4  S    1.108027
     5  C   -0.142144
     6  O   -0.529544
     7  O   -0.545023
     8  O   -0.545018
     9  O   -0.529549
    10  N   -0.093355
    11  N   -0.093327
 Sum of Mulliken charges =  -1.00000

 Dipole moment (field-independent basis, Debye):
    X=             -7.0374    Y=             -3.5230    Z=             -7.6791  Tot=             10.9957
 Quadrupole moment (field-independent basis, Debye-Ang):
   XX=           -109.7314   YY=            -93.1164   ZZ=           -110.8133
   XY=            -10.3444   XZ=            -11.9570   YZ=             -6.0878

 Normal termination of Gaussian 09 at Sat Feb 13 10:02:27 2021.
