 Gaussian 09, Revision E.01,
 Gaussian 09:  ES64L-G09RevE.01 30-Nov-2015

 ----------------------------------------------------------------------
 # opt=(maxcycles=100,verytight) freq rb3lyp/6-311+g(d,p) empiricaldisp
 ersion=gd3bj int=ultrafine scf=conver=10 symmetry=none
 ----------------------------------------------------------------------

 -----
 ANION
 -----
 Symbolic Z-matrix:
 Charge = -1 Multiplicity = 1

 SCF Done:  E(RB3LYP) =  -1094.54735833     A.U. after   19 cycles
 Optimization completed.
    -- Stationary point found.
 Normal termination of Gaussian 09 at Wed Apr  6 17:18:14 2022.

 ----------------------------------------------------------------------
 #N Geom=AllCheck Guess=TCheck SCRF=Check GenChk RB3LYP/6-311+G(d,p) Fr
 eq
 ----------------------------------------------------------------------

 Structure from the checkpoint file:  "NTfAc.chk"
 -----
 ANION
 -----
 Charge = -1 Multiplicity = 1

                          Input orientation:
 ---------------------------------------------------------------------
 Center     Atomic      Atomic             Coordinates (Angstroms)
 Number     Number       Type             X           Y           Z
 ---------------------------------------------------------------------
      1          9           0       -0.056860   -0.269238    0.163252
      2          6           0        0.002403   -0.011834    1.485470
      3         16           0        1.800138    0.098544    2.086353
      4          7           0        1.649044    0.394972    3.631187
      5          6           0        1.552281   -0.547571    4.631157
      6          6           0        1.684804   -2.043782    4.348665
      7          8           0        2.296304    1.286512    1.385497
      8          8           0        2.350813   -1.205148    1.664712
      9          1           0        0.911920   -2.380029    3.655023
     10          8           0        1.366058   -0.182854    5.788808
     11          1           0        1.588824   -2.570891    5.297475
     12          1           0        2.641770   -2.270355    3.877739
     13          9           0       -0.678493    1.123803    1.707141
     14          9           0       -0.658795   -1.009391    2.117642
 ---------------------------------------------------------------------

 SCF Done:  E(RB3LYP) =  -1094.54735833     A.U. after    1 cycles

 Alpha  occ. eigenvalues --  -88.92616 -24.60537 -24.60415 -24.60341 -18.97833
 Alpha  occ. eigenvalues --  -18.97450 -18.95119 -14.16002 -10.30947 -10.13976
 Alpha  occ. eigenvalues --  -10.03948  -7.98675  -5.94944  -5.94932  -5.94805
 Alpha  occ. eigenvalues --   -1.20939  -1.12186  -1.12142  -0.97835  -0.89403
 Alpha  occ. eigenvalues --   -0.86480  -0.76019  -0.61842  -0.59903  -0.53557
 Alpha  occ. eigenvalues --   -0.48832  -0.48673  -0.47519  -0.38739  -0.36674
 Alpha  occ. eigenvalues --   -0.36536  -0.34850  -0.33600  -0.33407  -0.32664
 Alpha  occ. eigenvalues --   -0.32067  -0.30649  -0.30505  -0.29756  -0.27672
 Alpha  occ. eigenvalues --   -0.23123  -0.21568  -0.19461  -0.18150  -0.17324
 Alpha  occ. eigenvalues --   -0.13077  -0.12788  -0.11429
 Alpha virt. eigenvalues --    0.11693   0.12639   0.13382   0.15216   0.15624
 Alpha virt. eigenvalues --    0.16213   0.17441   0.17512   0.18793   0.19012
 Alpha virt. eigenvalues --    0.19722   0.20577   0.20821   0.21530   0.21683

 Mulliken charges:
               1
     1  F   -0.119022
     2  C    0.072563
     3  S    0.310052
     4  N   -0.306618
     5  C    0.032425
     6  C   -0.388315
     7  O   -0.208286
     8  O   -0.294309
     9  H    0.152213
    10  O   -0.326928
    11  H    0.136022
    12  H    0.166123
    13  F   -0.100181
    14  F   -0.125739
 Sum of Mulliken charges =  -1.00000

 Dipole moment (field-independent basis, Debye):
    X=             -7.8269    Y=             -1.7577    Z=            -14.6873  Tot=             16.7351
 Quadrupole moment (field-independent basis, Debye-Ang):
   XX=            -89.1672   YY=            -79.2550   ZZ=           -143.3671
   XY=             -3.0518   XZ=            -20.8044   YZ=             -6.1912

  Exact polarizability:  68.931  -0.985  79.733  -0.083  -6.030 102.941
 Approx polarizability:  96.819  -1.262 118.363  -7.316  -0.973 148.696

                      1                      2                      3
                      A                      A                      A
 Frequencies --     46.0353                50.5721                70.6656
 Red. masses --      8.9422                 5.6549                 9.3555
 Frc consts  --      0.0112                 0.0085                 0.0275
 IR Inten    --      2.0351                 5.0230                 0.4312

                      4                      5                      6
                      A                      A                      A
 Frequencies --    131.0117               190.8185               203.7804
 Red. masses --      1.0694                15.5950                15.4729
 Frc consts  --      0.0108                 0.3346                 0.3786
 IR Inten    --      0.1689                 2.2012                 2.4166

                      7                      8                      9
                      A                      A                      A
 Frequencies --    216.9912               273.2019               300.0562
 Red. masses --      6.2718                17.1639                 8.1638
 Frc consts  --      0.1740                 0.7548                 0.4331
 IR Inten    --      7.6365                 0.9197                 1.3882

                     10                     11                     12
                      A                      A                      A
 Frequencies --    320.0935               388.6686               415.2130
 Red. masses --     16.1880                 5.8263                14.3730
 Frc consts  --      0.9772                 0.5186                 1.4600
 IR Inten    --      0.0819                 1.0369                 7.7527

                     13                     14                     15
                      A                      A                      A
 Frequencies --    521.2994               529.4060               555.6594
 Red. masses --     15.1524                 8.5825                 7.3517
 Frc consts  --      2.4261                 1.4172                 1.3374
 IR Inten    --      9.1384                 0.7665                16.3690

                     16                     17                     18
                      A                      A                      A
 Frequencies --    572.3643               590.8709               617.0727
 Red. masses --     12.3393                 2.6912                13.5280
 Frc consts  --      2.3817                 0.5536                 3.0350
 IR Inten    --     85.8381                 0.2622               164.4067

                     19                     20                     21
                      A                      A                      A
 Frequencies --    726.1695               747.2880               969.5841
 Red. masses --     11.9028                 8.1769                 5.5882
 Frc consts  --      3.6981                 2.6904                 3.0952
 IR Inten    --      8.8026                67.7493                57.8108

                     22                     23                     24
                      A                      A                      A
 Frequencies --   1031.5157              1050.7267              1094.2861
 Red. masses --      1.9137                 1.7835                12.1522
 Frc consts  --      1.1997                 1.1601                 8.5737
 IR Inten    --     62.7881                 7.7103               107.8072

                     25                     26                     27
                      A                      A                      A
 Frequencies --   1112.7434              1141.2742              1164.9720
 Red. masses --     10.2287                12.6813                12.7290
 Frc consts  --      7.4621                 9.7318                10.1783
 IR Inten    --    185.2956               370.3255               261.6045

                     28                     29                     30
                      A                      A                      A
 Frequencies --   1242.0213              1322.2778              1389.5454
 Red. masses --     17.6947                 4.5786                 1.3905
 Frc consts  --     16.0824                 4.7166                 1.5818
 IR Inten    --    294.3111               602.8807                94.7366

                     31                     32                     33
                      A                      A                      A
 Frequencies --   1462.1899              1481.0750              1676.6748
 Red. masses --      1.0664                 1.0475                 9.8847
 Frc consts  --      1.3433                 1.3538                16.3723
 IR Inten    --     26.0134                 7.3211               491.8548

                     34                     35                     36
                      A                      A                      A
 Frequencies --   3049.5751              3118.0480              3133.6788
 Red. masses --      1.0334                 1.0993                 1.1052
 Frc consts  --      5.6623                 6.2968                 6.3946
 IR Inten    --     16.6557                12.1424                22.4566

 - Thermochemistry -
 -------------------
 Temperature   298.150 Kelvin.  Pressure   1.00000 Atm.
 Atom     1 has atomic number  9 and mass  18.99840

 Molecular mass:   189.97857 amu.
 Principal axes and moments of inertia in atomic units:
                           1         2         3
     Eigenvalues --  1203.765532379.979922581.28953
           X            0.35003   0.92445  -0.15122
           Y           -0.22167   0.23859   0.94548
           Z            0.91013  -0.29743   0.28844
 This molecule is an asymmetric top.
 Rotational symmetry number  1.
 Warning -- assumption of classical behavior for rotation
           may cause significant error
 Rotational temperatures (Kelvin)      0.07195     0.03639     0.03355
 Rotational constants (GHZ):           1.49925     0.75830     0.69916
 Zero-point vibrational energy     196830.1 (Joules/Mol)
                                   47.04353 (Kcal/Mol)
 Warning -- explicit consideration of  18 degrees of freedom as
           vibrations may cause significant error
 Vibrational temperatures:     66.23    72.76   101.67   188.50   274.54
          (Kelvin)            293.19   312.20   393.08   431.71   460.54
                              559.21   597.40   750.03   761.70   799.47
                              823.50   850.13   887.83  1044.79  1075.18
                             1395.01  1484.12  1511.76  1574.43  1600.99
                             1642.04  1676.13  1786.99  1902.46  1999.24
                             2103.76  2130.93  2412.36  4387.65  4486.17
                             4508.66

 Zero-point correction=                           0.074969 (Hartree/Particle)
 Thermal correction to Energy=                    0.086025
 Thermal correction to Enthalpy=                  0.086969
 Thermal correction to Gibbs Free Energy=         0.036787
 Sum of electronic and zero-point Energies=          -1094.472390
 Sum of electronic and thermal Energies=             -1094.461334
 Sum of electronic and thermal Enthalpies=           -1094.460389
 Sum of electronic and thermal Free Energies=        -1094.510571

                     E (Thermal)             CV                S
                      KCal/Mol        Cal/Mol-Kelvin    Cal/Mol-Kelvin
 Total                   53.981             38.190            105.617
 Electronic               0.000              0.000              0.000
 Translational            0.889              2.981             41.631
 Rotational               0.889              2.981             30.382
 Vibrational             52.204             32.229             33.604
 Vibration     1          0.595              1.979              4.981
 Vibration     2          0.595              1.977              4.795
 Vibration     3          0.598              1.968              4.135
 Vibration     4          0.612              1.922              2.931
 Vibration     5          0.634              1.853              2.220
 Vibration     6          0.639              1.835              2.099
 Vibration     7          0.646              1.815              1.984
 Vibration     8          0.676              1.723              1.576
 Vibration     9          0.693              1.674              1.417
 Vibration    10          0.706              1.635              1.310
 Vibration    11          0.757              1.494              1.005
 Vibration    12          0.779              1.437              0.908
 Vibration    13          0.876              1.203              0.607
 Vibration    14          0.884              1.185              0.589
 Vibration    15          0.911              1.127              0.533
 Vibration    16          0.929              1.091              0.500
 Vibration    17          0.948              1.051              0.466
 Vibration    18          0.977              0.996              0.421

 Optimization completed.
    -- Stationary point found.
 Normal termination of Gaussian 09 at Wed Apr  6 17:26:53 2022.
