 Gaussian 09, Revision E.01,
 Gaussian 09:  ES64L-G09RevE.01 30-Nov-2015

 ----------------------------------------------------------------------
 # RMP2=(full,semidirect)/cc-pVTZ int=ultrafine symmetry=none scf=(conv
 er=10)
 ----------------------------------------------------------------------

 -----------------
 NTfMs_353_89TSMP2
 -----------------
 Symbolic Z-matrix:
 Charge = -1 Multiplicity = 1

                          Input orientation:
 ---------------------------------------------------------------------
 Center     Atomic      Atomic             Coordinates (Angstroms)
 Number     Number       Type             X           Y           Z
 ---------------------------------------------------------------------
      1          7           0        0.049983   -0.020928   -0.063467
      2         16           0        0.021077    0.028881    1.517681
      3         16           0        1.220276    0.022153   -1.165260
      4          6           0        1.788338   -0.039846    2.245631
      5          6           0        1.671984   -1.717210   -1.385585
      6          1           0        2.425544   -1.761473   -2.171834
      7          9           0        1.684156   -0.280430    3.568550
      8          8           0        2.439131    0.715900   -0.717037
      9          8           0        0.621678    0.443337   -2.438045
     10          8           0       -0.481077    1.304700    2.035949
     11          8           0       -0.578510   -1.199504    2.056707
     12          9           0        2.465837    1.096008    2.096037
     13          1           0        0.772125   -2.257018   -1.674012
     14          9           0        2.508453   -1.050564    1.714583
     15          1           0        2.067211   -2.090906   -0.443767
 ---------------------------------------------------------------------

 SCF Done:  E(RHF) =  -1525.01163106     A.U. after   17 cycles
 E2 =    -0.2831417159D+01 EUMP2 =    -0.15278430482140D+04

 Alpha  occ. eigenvalues --  -92.07763 -92.06281 -26.22972 -26.22500 -26.22358
 Alpha  occ. eigenvalues --  -20.40674 -20.40645 -20.39832 -20.39569 -15.41709
 Alpha  occ. eigenvalues --  -11.40119 -11.14089  -9.04044  -9.02641  -6.72647
 Alpha  occ. eigenvalues --   -6.72504  -6.72465  -6.71183  -6.71112  -6.71102
 Alpha  occ. eigenvalues --   -1.61349  -1.52230  -1.51788  -1.31510  -1.29707
 Alpha  occ. eigenvalues --   -1.19052  -1.18255  -1.06386  -0.89916  -0.87056
 Alpha  occ. eigenvalues --   -0.78084  -0.72379  -0.70739  -0.70462  -0.62071
 Alpha  occ. eigenvalues --   -0.59706  -0.59489  -0.56544  -0.55398  -0.55012
 Alpha  occ. eigenvalues --   -0.53552  -0.53219  -0.52576  -0.50739  -0.50141
 Alpha  occ. eigenvalues --   -0.47830  -0.46357  -0.41102  -0.37798  -0.37023
 Alpha  occ. eigenvalues --   -0.36007  -0.34186  -0.33836  -0.32786  -0.31365
 Alpha  occ. eigenvalues --   -0.28733  -0.26825
 Alpha virt. eigenvalues --    0.26296   0.31072   0.32758   0.33156   0.35608
 Alpha virt. eigenvalues --    0.38112   0.39600   0.40266   0.42334   0.43327
 Alpha virt. eigenvalues --    0.45245   0.47816   0.49407   0.50473   0.51166

 Mulliken charges:
               1
     1  N   -0.620970
     2  S    1.048951
     3  S    1.067815
     4  C    0.581353
     5  C   -0.287039
     6  H    0.091447
     7  F   -0.233387
     8  O   -0.616100
     9  O   -0.606537
    10  O   -0.589038
    11  O   -0.603932
    12  F   -0.206972
    13  H    0.108895
    14  F   -0.244938
    15  H    0.110450
 Sum of Mulliken charges =  -1.00000

 Dipole moment (field-independent basis, Debye):
    X=             -1.4798    Y=             -3.4485    Z=             -2.5414  Tot=              4.5321
 Quadrupole moment (field-independent basis, Debye-Ang):
   XX=            -94.5280   YY=            -88.7081   ZZ=           -108.1848
   XY=             -6.3880   XZ=              3.3540   YZ=              5.7887

 Normal termination of Gaussian 09 at Sun Feb 14 12:44:35 2021.
