 Gaussian 09, Revision E.01,
 Gaussian 09:  ES64L-G09RevE.01 30-Nov-2015

 ----------------------------------------------------------------------
 # RMP2=(full,semidirect)/cc-pVTZ int=ultrafine symmetry=none scf=(conv
 er=10)
 ----------------------------------------------------------------------

 ------------------
 NTfMs_280_110GSMP2
 ------------------
 Symbolic Z-matrix:
 Charge = -1 Multiplicity = 1

                          Input orientation:
 ---------------------------------------------------------------------
 Center     Atomic      Atomic             Coordinates (Angstroms)
 Number     Number       Type             X           Y           Z
 ---------------------------------------------------------------------
      1          7           0       -0.007643    0.044222   -0.029928
      2         16           0        0.054924    0.081463    1.554918
      3         16           0        1.270664    0.033287   -1.061269
      4          6           0        0.414677   -1.711342    2.059590
      5          6           0        1.168989   -1.648924   -1.719815
      6          1           0        1.919964   -1.727230   -2.505867
      7          9           0        0.444521   -1.844928    3.397783
      8          8           0        2.596013    0.169360   -0.441277
      9          8           0        0.945134    0.924982   -2.183153
     10          8           0        1.150297    0.826693    2.174108
     11          8           0       -1.302144    0.276967    2.067963
     12          9           0        1.602141   -2.133047    1.579993
     13          1           0        0.166838   -1.792657   -2.118406
     14          9           0       -0.526108   -2.553969    1.587824
     15          1           0        1.376654   -2.347853   -0.912501
 ---------------------------------------------------------------------

 SCF Done:  E(RHF) =  -1525.01885685     A.U. after   18 cycles
 E2 =    -0.2832107273D+01 EUMP2 =    -0.15278509641224D+04

 Alpha  occ. eigenvalues --  -92.07417 -92.05834 -26.22970 -26.22888 -26.22865
 Alpha  occ. eigenvalues --  -20.40893 -20.40744 -20.39747 -20.39472 -15.42265
 Alpha  occ. eigenvalues --  -11.39776 -11.14215  -9.03716  -9.02293  -6.72271
 Alpha  occ. eigenvalues --   -6.72202  -6.72161  -6.70810  -6.70761  -6.70733
 Alpha  occ. eigenvalues --   -1.61468  -1.52220  -1.52134  -1.31675  -1.29456
 Alpha  occ. eigenvalues --   -1.19410  -1.18023  -1.06137  -0.90069  -0.87291
 Alpha  occ. eigenvalues --   -0.77578  -0.71669  -0.70736  -0.70617  -0.62049
 Alpha  occ. eigenvalues --   -0.59909  -0.59808  -0.56219  -0.55477  -0.55181
 Alpha  occ. eigenvalues --   -0.53921  -0.53451  -0.52225  -0.51177  -0.49978
 Alpha  occ. eigenvalues --   -0.47716  -0.46251  -0.42904  -0.37762  -0.36342
 Alpha  occ. eigenvalues --   -0.35513  -0.33979  -0.33528  -0.32629  -0.30904
 Alpha  occ. eigenvalues --   -0.28782  -0.27915
 Alpha virt. eigenvalues --    0.26222   0.31040   0.33250   0.34328   0.36552
 Alpha virt. eigenvalues --    0.37548   0.39203   0.39933   0.41786   0.43404
 Alpha virt. eigenvalues --    0.45161   0.46177   0.49340   0.50756   0.51639

 Mulliken charges:
               1
     1  N   -0.644651
     2  S    1.042631
     3  S    1.076717
     4  C    0.581109
     5  C   -0.292566
     6  H    0.096424
     7  F   -0.234029
     8  O   -0.593909
     9  O   -0.609335
    10  O   -0.569780
    11  O   -0.589608
    12  F   -0.236715
    13  H    0.109757
    14  F   -0.243499
    15  H    0.107453
 Sum of Mulliken charges =  -1.00000

 Dipole moment (field-independent basis, Debye):
    X=             -3.0558    Y=             -3.6891    Z=             -3.6315  Tot=              6.0112
 Quadrupole moment (field-independent basis, Debye-Ang):
   XX=           -101.1836   YY=            -86.8304   ZZ=           -104.0999
   XY=             -4.7118   XZ=              2.3403   YZ=              6.1036

 Normal termination of Gaussian 09 at Sat Feb 13 10:03:18 2021.
