 Gaussian 09, Revision E.01,
 Gaussian 09:  ES64L-G09RevE.01 30-Nov-2015

 ----------------------------------------------------------------------
 # opt=(maxcycles=100,verytight) freq rb3lyp/6-311+g(d,p) empiricaldisp
 ersion=gd3bj int=ultrafine scf=conver=10 symmetry=none
 ----------------------------------------------------------------------

 -----
 ANION
 -----
 Symbolic Z-matrix:
 Charge = -1 Multiplicity = 1

 SCF Done:  E(RB3LYP) =  -1529.83674787     A.U. after   18 cycles
 SCF Done:  E(RB3LYP) =  -1529.83674787     A.U. after    9 cycles
 SCF Done:  E(RB3LYP) =  -1529.83674787     A.U. after    8 cycles
 SCF Done:  E(RB3LYP) =  -1529.83674787     A.U. after    7 cycles
 SCF Done:  E(RB3LYP) =  -1529.83674787     A.U. after    7 cycles
 Optimization completed.
    -- Stationary point found.
 Normal termination of Gaussian 09 at Wed Apr  6 17:35:40 2022.

 ----------------------------------------------------------------------
 #N Geom=AllCheck Guess=TCheck SCRF=Check GenChk RB3LYP/6-311+G(d,p) Fr
 eq
 ----------------------------------------------------------------------

 Structure from the checkpoint file:  "NTfMs.chk"
 -----
 ANION
 -----
 Charge = -1 Multiplicity = 1

                          Input orientation:
 ---------------------------------------------------------------------
 Center     Atomic      Atomic             Coordinates (Angstroms)
 Number     Number       Type             X           Y           Z
 ---------------------------------------------------------------------
      1          7           0       -0.105240   -0.032302   -0.064065
      2         16           0        0.047501   -0.143482    1.515349
      3         16           0        1.181149    0.059068   -1.087908
      4          6           0        0.126477    1.635279    2.166840
      5          6           0        2.037583   -1.524806   -0.918034
      6          1           0        2.861169   -1.511079   -1.631476
      7          9           0        0.030513    1.626710    3.514174
      8          8           0        2.150559    1.106200   -0.729387
      9          8           0        0.613339    0.093547   -2.441978
     10          8           0       -1.212506   -0.623293    2.084628
     11          8           0        1.301581   -0.740158    2.008090
     12          9           0       -0.895046    2.367192    1.692018
     13          1           0        1.326548   -2.314467   -1.154498
     14          9           0        1.266893    2.249536    1.844422
     15          1           0        2.390729   -1.603585    0.107835
 ---------------------------------------------------------------------

 SCF Done:  E(RB3LYP) =  -1529.83674787     A.U. after    1 cycles

 Alpha  occ. eigenvalues --  -88.94107 -88.92954 -24.60669 -24.60656 -24.60519
 Alpha  occ. eigenvalues --  -18.99217 -18.98828 -18.97596 -18.97581 -14.18107
 Alpha  occ. eigenvalues --  -10.31672 -10.07946  -8.00156  -7.99043  -5.96417
 Alpha  occ. eigenvalues --   -5.96377  -5.96334  -5.95326  -5.95273  -5.95173
 Alpha  occ. eigenvalues --   -1.21367  -1.12578  -1.12418  -0.99624  -0.97581
 Alpha  occ. eigenvalues --   -0.88030  -0.86569  -0.77603  -0.64630  -0.61744
 Alpha  occ. eigenvalues --   -0.55490  -0.50260  -0.48961  -0.48891  -0.42528
 Alpha  occ. eigenvalues --   -0.38686  -0.36926  -0.36560  -0.35713  -0.34831
 Alpha  occ. eigenvalues --   -0.33664  -0.33463  -0.33053  -0.32569  -0.32205
 Alpha  occ. eigenvalues --   -0.30761  -0.30126  -0.25165  -0.22021  -0.21189
 Alpha  occ. eigenvalues --   -0.19807  -0.18969  -0.18556  -0.17633  -0.16614
 Alpha  occ. eigenvalues --   -0.15367  -0.13821
 Alpha virt. eigenvalues --    0.10656   0.12658   0.14494   0.14867   0.15449
 Alpha virt. eigenvalues --    0.15646   0.16218   0.17237   0.18044   0.18152
 Alpha virt. eigenvalues --    0.18829   0.19343   0.19552   0.20249   0.20723

 Mulliken charges:
               1
     1  N   -0.541908
     2  S    0.384703
     3  S    0.415499
     4  C    0.022196
     5  C   -0.595311
     6  H    0.177243
     7  F   -0.118267
     8  O   -0.317270
     9  O   -0.233174
    10  O   -0.200493
    11  O   -0.260203
    12  F   -0.099816
    13  H    0.186097
    14  F   -0.049263
    15  H    0.229967
 Sum of Mulliken charges =  -1.00000

 Dipole moment (field-independent basis, Debye):
    X=             -1.0632    Y=             -2.4565    Z=             -1.9468  Tot=              3.3098
 Quadrupole moment (field-independent basis, Debye-Ang):
   XX=            -95.8528   YY=            -89.3930   ZZ=           -111.1034
   XY=             -7.0356   XZ=              2.0247   YZ=              4.7551

  Exact polarizability:  88.030  -3.198  88.606  -9.761   4.914 104.679
 Approx polarizability: 140.557   2.225 124.890  -2.220  -0.661 147.388

                      1                      2                      3
                      A                      A                      A
 Frequencies --     22.3709                53.4422                82.7948
 Red. masses --     11.4166                 8.0860                12.5352
 Frc consts  --      0.0034                 0.0136                 0.0506
 IR Inten    --      1.8155                 3.5189                 2.7870

                      4                      5                      6
                      A                      A                      A
 Frequencies --    150.7463               167.8493               200.4790
 Red. masses --     13.8387                 5.6724                13.0804
 Frc consts  --      0.1853                 0.0942                 0.3097
 IR Inten    --      0.6705                 7.0507                 0.9520

                      7                      8                      9
                      A                      A                      A
 Frequencies --    238.0181               252.3459               276.6201
 Red. masses --      1.0784                 8.4304                 7.9667
 Frc consts  --      0.0360                 0.3163                 0.3592
 IR Inten    --      1.1063                 0.5500                 1.0982

                     10                     11                     12
                      A                      A                      A
 Frequencies --    297.9231               314.0851               332.5414
 Red. masses --     10.5223                13.3415                 5.0150
 Frc consts  --      0.5503                 0.7754                 0.3267
 IR Inten    --      0.3898                 1.2185                 2.2181

                     13                     14                     15
                      A                      A                      A
 Frequencies --    372.2691               391.4051               490.3158
 Red. masses --     10.3403                10.7863                 8.7680
 Frc consts  --      0.8443                 0.9736                 1.2419
 IR Inten    --      5.2001                 1.4050                29.5364

                     16                     17                     18
                      A                      A                      A
 Frequencies --    494.7864               522.9815               544.5145
 Red. masses --     11.6780                13.6114                16.9140
 Frc consts  --      1.6844                 2.1934                 2.9547
 IR Inten    --     80.4747                 9.0270                14.4618

                     19                     20                     21
                      A                      A                      A
 Frequencies --    572.3126               594.1400               667.1673
 Red. masses --     16.3959                14.2714                 9.4878
 Frc consts  --      3.1641                 2.9682                 2.4882
 IR Inten    --     50.9236               123.8170                88.9897

                     22                     23                     24
                      A                      A                      A
 Frequencies --    739.6855               763.3157               979.6316
 Red. masses --     15.2373                 9.9812                 1.5235
 Frc consts  --      4.9119                 3.4264                 0.8614
 IR Inten    --     21.9521                59.9744                97.1486

                     25                     26                     27
                      A                      A                      A
 Frequencies --    988.1763               999.5138              1074.5725
 Red. masses --      3.0692                 1.8913                15.5834
 Frc consts  --      1.7658                 1.1132                10.6019
 IR Inten    --    193.1715               202.8026               351.9091

                     28                     29                     30
                      A                      A                      A
 Frequencies --   1102.3204              1136.3286              1155.7106
 Red. masses --     10.3086                13.8163                13.4799
 Frc consts  --      7.3802                10.5112                10.6080
 IR Inten    --     44.0520               528.7586               127.9294

                     31                     32                     33
                      A                      A                      A
 Frequencies --   1186.7845              1245.1324              1264.8673
 Red. masses --     13.3955                16.8657                15.3782
 Frc consts  --     11.1161                15.4059                14.4959
 IR Inten    --    123.7211               154.6201               496.9445

                     34                     35                     36
                      A                      A                      A
 Frequencies --   1338.2380              1452.7276              1469.0679
 Red. masses --      1.2244                 1.0484                 1.0521
 Frc consts  --      1.2920                 1.3037                 1.3377
 IR Inten    --     11.4877                 1.5209                 5.6799

                     37                     38                     39
                      A                      A                      A
 Frequencies --   3056.9587              3155.4131              3172.4614
 Red. masses --      1.0278                 1.1060                 1.1073
 Frc consts  --      5.6592                 6.4879                 6.5662
 IR Inten    --     15.7213                 5.9015                 1.2642

 - Thermochemistry -
 -------------------
 Temperature   298.150 Kelvin.  Pressure   1.00000 Atm.
 Atom     1 has atomic number  7 and mass  14.00307

 Molecular mass:   225.94556 amu.
 Principal axes and moments of inertia in atomic units:
                           1         2         3
     Eigenvalues --  1370.263293309.881643642.83789
           X           -0.32761   0.24764   0.91178
           Y            0.35713   0.92590  -0.12316
           Z            0.87472  -0.28527   0.39177
 This molecule is an asymmetric top.
 Rotational symmetry number  1.
 Warning -- assumption of classical behavior for rotation
           may cause significant error
 Rotational temperatures (Kelvin)      0.06321     0.02617     0.02378
 Rotational constants (GHZ):           1.31708     0.54526     0.49542
 Zero-point vibrational energy     199297.9 (Joules/Mol)
                                   47.63335 (Kcal/Mol)
 Warning -- explicit consideration of  20 degrees of freedom as
           vibrations may cause significant error
 Vibrational temperatures:     32.19    76.89   119.12   216.89   241.50
          (Kelvin)            288.44   342.45   363.07   397.99   428.64
                              451.90   478.45   535.61   563.14   705.45
                              711.89   752.45   783.43   823.43   854.83
                              959.90  1064.24  1098.24  1409.47  1421.76
                             1438.08  1546.07  1585.99  1634.92  1662.81
                             1707.52  1791.47  1819.86  1925.42  2090.15
                             2113.66  4398.28  4539.93  4564.46

 Zero-point correction=                           0.075909 (Hartree/Particle)
 Thermal correction to Energy=                    0.088133
 Thermal correction to Enthalpy=                  0.089077
 Thermal correction to Gibbs Free Energy=         0.036015
 Sum of electronic and zero-point Energies=          -1529.760839
 Sum of electronic and thermal Energies=             -1529.748615
 Sum of electronic and thermal Enthalpies=           -1529.747671
 Sum of electronic and thermal Free Energies=        -1529.800733

                     E (Thermal)             CV                S
                      KCal/Mol        Cal/Mol-Kelvin    Cal/Mol-Kelvin
 Total                   55.304             43.193            111.679
 Electronic               0.000              0.000              0.000
 Translational            0.889              2.981             42.148
 Rotational               0.889              2.981             31.180
 Vibrational             53.527             37.231             38.350
 Vibration     1          0.593              1.985              6.412
 Vibration     2          0.596              1.976              4.686
 Vibration     3          0.600              1.961              3.824
 Vibration     4          0.618              1.902              2.663
 Vibration     5          0.625              1.882              2.459
 Vibration     6          0.638              1.839              2.129
 Vibration     7          0.656              1.782              1.818
 Vibration     8          0.664              1.759              1.714
 Vibration     9          0.678              1.717              1.554
 Vibration    10          0.691              1.678              1.429
 Vibration    11          0.702              1.647              1.341
 Vibration    12          0.714              1.611              1.248
 Vibration    13          0.744              1.529              1.070
 Vibration    14          0.759              1.489              0.995
 Vibration    15          0.846              1.272              0.683
 Vibration    16          0.850              1.262              0.671
 Vibration    17          0.878              1.199              0.603
 Vibration    18          0.900              1.152              0.556
 Vibration    19          0.929              1.091              0.500
 Vibration    20          0.952              1.044              0.460

 Optimization completed.
    -- Stationary point found.
 Normal termination of Gaussian 09 at Wed Apr  6 17:44:40 2022.
