 Gaussian 09, Revision E.01,
 Gaussian 09:  ES64L-G09RevE.01 30-Nov-2015

 ----------------------------------------------------------------------
 # RMP2=(full,semidirect)/cc-pVTZ int=ultrafine symmetry=none scf=(conv
 er=10)
 ----------------------------------------------------------------------

 ----------------
 NTfMs_88_65GSMP2
 ----------------
 Symbolic Z-matrix:
 Charge = -1 Multiplicity = 1

                          Input orientation:
 ---------------------------------------------------------------------
 Center     Atomic      Atomic             Coordinates (Angstroms)
 Number     Number       Type             X           Y           Z
 ---------------------------------------------------------------------
      1          7           0       -0.105240   -0.032302   -0.064065
      2         16           0        0.047502   -0.143481    1.515349
      3         16           0        1.181150    0.059067   -1.087907
      4          6           0        0.126477    1.635280    2.166839
      5          6           0        2.037582   -1.524808   -0.918034
      6          1           0        2.861168   -1.511080   -1.631477
      7          9           0        0.030514    1.626711    3.514173
      8          8           0        2.150561    1.106198   -0.729385
      9          8           0        0.613340    0.093548   -2.441977
     10          8           0       -1.212504   -0.623293    2.084629
     11          8           0        1.301583   -0.740156    2.008090
     12          9           0       -0.895047    2.367192    1.692018
     13          1           0        1.326546   -2.314469   -1.154500
     14          9           0        1.266893    2.249537    1.844419
     15          1           0        2.390729   -1.603587    0.107834
 ---------------------------------------------------------------------

 SCF Done:  E(RHF) =  -1525.02466042     A.U. after   17 cycles
 E2 =    -0.2831030551D+01 EUMP2 =    -0.15278556909701D+04

 Alpha  occ. eigenvalues --  -92.07547 -92.05542 -26.22283 -26.22260 -26.22075
 Alpha  occ. eigenvalues --  -20.41640 -20.41054 -20.39513 -20.39402 -15.42373
 Alpha  occ. eigenvalues --  -11.39607 -11.13603  -9.03920  -9.02046  -6.72450
 Alpha  occ. eigenvalues --   -6.72409  -6.72360  -6.70563  -6.70500  -6.70488
 Alpha  occ. eigenvalues --   -1.60952  -1.51657  -1.51511  -1.31920  -1.29402
 Alpha  occ. eigenvalues --   -1.19812  -1.17901  -1.06062  -0.89668  -0.86819
 Alpha  occ. eigenvalues --   -0.77195  -0.71221  -0.70198  -0.70042  -0.62413
 Alpha  occ. eigenvalues --   -0.59194  -0.59079  -0.56275  -0.54649  -0.54533
 Alpha  occ. eigenvalues --   -0.53299  -0.53071  -0.52345  -0.51098  -0.50112
 Alpha  occ. eigenvalues --   -0.48083  -0.46000  -0.41661  -0.38060  -0.36986
 Alpha  occ. eigenvalues --   -0.35623  -0.34250  -0.33595  -0.32649  -0.31366
 Alpha  occ. eigenvalues --   -0.28725  -0.27850
 Alpha virt. eigenvalues --    0.26704   0.31148   0.33795   0.34238   0.36371
 Alpha virt. eigenvalues --    0.37880   0.39706   0.41756   0.42621   0.43431
 Alpha virt. eigenvalues --    0.45347   0.45852   0.49608   0.50886   0.52090

 Mulliken charges:
               1
     1  N   -0.631215
     2  S    1.034548
     3  S    1.074393
     4  C    0.589747
     5  C   -0.307876
     6  H    0.096096
     7  F   -0.241545
     8  O   -0.610026
     9  O   -0.608733
    10  O   -0.585235
    11  O   -0.613439
    12  F   -0.231015
    13  H    0.104928
    14  F   -0.208001
    15  H    0.137373
 Sum of Mulliken charges =  -1.00000

 Dipole moment (field-independent basis, Debye):
    X=             -1.0832    Y=             -2.5566    Z=             -1.8608  Tot=              3.3424
 Quadrupole moment (field-independent basis, Debye-Ang):
   XX=            -94.0211   YY=            -87.1705   ZZ=           -109.3882
   XY=             -7.5472   XZ=              2.0863   YZ=              5.2014

 Normal termination of Gaussian 09 at Sat Feb 13 10:01:46 2021.
