 Gaussian 09, Revision E.01,
 Gaussian 09:  ES64L-G09RevE.01 30-Nov-2015

 ----------------------------------------------------------------------
 # RMP2=(full,semidirect)/cc-pVTZ int=ultrafine symmetry=none scf=(conv
 er=10)
 ----------------------------------------------------------------------

 -----------------
 NTfMs_242_58GSMP2
 -----------------
 Symbolic Z-matrix:
 Charge = -1 Multiplicity = 1

                          Input orientation:
 ---------------------------------------------------------------------
 Center     Atomic      Atomic             Coordinates (Angstroms)
 Number     Number       Type             X           Y           Z
 ---------------------------------------------------------------------
      1          7           0       -0.046676    0.053145    0.025037
      2         16           0        0.177698    0.090147    1.595524
      3         16           0        1.171082   -0.016116   -1.072246
      4          6           0       -0.710997   -1.504328    2.086279
      5          6           0        2.125133   -1.505900   -0.692440
      6          1           0        2.908726   -1.567993   -1.446936
      7          9           0       -0.646487   -1.691820    3.419374
      8          8           0        2.103328    1.115683   -0.963845
      9          8           0        0.527067   -0.247266   -2.372210
     10          8           0        1.550128   -0.140055    2.078235
     11          8           0       -0.624174    1.119785    2.255899
     12          9           0       -0.136662   -2.576545    1.501048
     13          1           0        1.454200   -2.360525   -0.753105
     14          9           0       -2.005662   -1.493204    1.739149
     15          1           0        2.540150   -1.394670    0.306682
 ---------------------------------------------------------------------

 SCF Done:  E(RHF) =  -1525.02345812     A.U. after   17 cycles
 E2 =    -0.2831656538D+01 EUMP2 =    -0.15278551146550D+04

 Alpha  occ. eigenvalues --  -92.07993 -92.05606 -26.23315 -26.23085 -26.23072
 Alpha  occ. eigenvalues --  -20.41932 -20.41487 -20.39317 -20.39314 -15.42205
 Alpha  occ. eigenvalues --  -11.40158 -11.13560  -9.04328  -9.02076  -6.72870
 Alpha  occ. eigenvalues --   -6.72820  -6.72759  -6.70603  -6.70535  -6.70515
 Alpha  occ. eigenvalues --   -1.61757  -1.52537  -1.52381  -1.32183  -1.29348
 Alpha  occ. eigenvalues --   -1.20144  -1.17764  -1.06475  -0.89794  -0.87509
 Alpha  occ. eigenvalues --   -0.78108  -0.71478  -0.71102  -0.70411  -0.62664
 Alpha  occ. eigenvalues --   -0.60104  -0.60036  -0.56601  -0.55682  -0.55363
 Alpha  occ. eigenvalues --   -0.54097  -0.53363  -0.52855  -0.51188  -0.50248
 Alpha  occ. eigenvalues --   -0.47978  -0.45959  -0.42245  -0.37859  -0.36719
 Alpha  occ. eigenvalues --   -0.36049  -0.35001  -0.33692  -0.32642  -0.31369
 Alpha  occ. eigenvalues --   -0.28784  -0.27629
 Alpha virt. eigenvalues --    0.27104   0.31583   0.33707   0.34241   0.35198
 Alpha virt. eigenvalues --    0.38306   0.39748   0.41439   0.42305   0.42856
 Alpha virt. eigenvalues --    0.44229   0.48476   0.50092   0.50187   0.51785

 Mulliken charges:
               1
     1  N   -0.638757
     2  S    1.041579
     3  S    1.086668
     4  C    0.595977
     5  C   -0.324413
     6  H    0.104532
     7  F   -0.237020
     8  O   -0.608914
     9  O   -0.611565
    10  O   -0.603545
    11  O   -0.577882
    12  F   -0.243729
    13  H    0.107506
    14  F   -0.227232
    15  H    0.136794
 Sum of Mulliken charges =  -1.00000

 Dipole moment (field-independent basis, Debye):
    X=             -1.5505    Y=             -3.2372    Z=             -1.5338  Tot=              3.9034
 Quadrupole moment (field-independent basis, Debye-Ang):
   XX=            -92.3420   YY=            -88.6779   ZZ=           -110.3777
   XY=             -6.5080   XZ=              1.4180   YZ=              0.8235

 Normal termination of Gaussian 09 at Sat Feb 13 10:03:03 2021.
