 Gaussian 09, Revision E.01,
 Gaussian 09:  ES64L-G09RevE.01 30-Nov-2015

 ----------------------------------------------------------------------
 # RMP2=(full,semidirect)/cc-pVTZ int=ultrafine symmetry=none scf=(conv
 er=10)
 ----------------------------------------------------------------------

 -----------------
 NTfMs_80_149TSMP2
 -----------------
 Symbolic Z-matrix:
 Charge = -1 Multiplicity = 1

                          Input orientation:
 ---------------------------------------------------------------------
 Center     Atomic      Atomic             Coordinates (Angstroms)
 Number     Number       Type             X           Y           Z
 ---------------------------------------------------------------------
      1          7           0        0.016612   -0.035643   -0.053653
      2         16           0        0.023050   -0.139290    1.529125
      3         16           0        1.327341    0.065103   -1.036717
      4          6           0        0.308072    1.635175    2.119061
      5          6           0        0.621545   -0.791184   -2.461905
      6          1           0        1.372370   -0.747693   -3.250906
      7          9           0        0.231838    1.700969    3.464848
      8          8           0        2.503405   -0.706972   -0.608152
      9          8           0        1.561540    1.455952   -1.463141
     10          8           0       -1.344254   -0.418282    1.975232
     11          8           0        1.122872   -0.875096    2.154672
     12          9           0       -0.610998    2.477453    1.619801
     13          1           0       -0.288452   -0.272750   -2.756007
     14          9           0        1.520111    2.077395    1.755393
     15          1           0        0.413348   -1.818855   -2.171667
 ---------------------------------------------------------------------

 SCF Done:  E(RHF) =  -1525.01903017     A.U. after   17 cycles
 E2 =    -0.2830180048D+01 EUMP2 =    -0.15278492102211D+04

 Alpha  occ. eigenvalues --  -92.07049 -92.05728 -26.21957 -26.21907 -26.21865
 Alpha  occ. eigenvalues --  -20.40593 -20.40504 -20.39548 -20.39375 -15.42072
 Alpha  occ. eigenvalues --  -11.39051 -11.14363  -9.03373  -9.02204  -6.71918
 Alpha  occ. eigenvalues --   -6.71862  -6.71824  -6.70713  -6.70678  -6.70631
 Alpha  occ. eigenvalues --   -1.60569  -1.51303  -1.51203  -1.31379  -1.29198
 Alpha  occ. eigenvalues --   -1.19096  -1.17691  -1.06049  -0.90360  -0.86541
 Alpha  occ. eigenvalues --   -0.77066  -0.71220  -0.69846  -0.69757  -0.61675
 Alpha  occ. eigenvalues --   -0.58873  -0.58790  -0.55816  -0.54473  -0.54254
 Alpha  occ. eigenvalues --   -0.53043  -0.52801  -0.52320  -0.50883  -0.49798
 Alpha  occ. eigenvalues --   -0.47457  -0.46252  -0.42807  -0.37195  -0.36988
 Alpha  occ. eigenvalues --   -0.35270  -0.33974  -0.32872  -0.32544  -0.30791
 Alpha  occ. eigenvalues --   -0.28990  -0.27311
 Alpha virt. eigenvalues --    0.25712   0.30685   0.31473   0.34200   0.36664
 Alpha virt. eigenvalues --    0.38618   0.39590   0.40398   0.41205   0.44109
 Alpha virt. eigenvalues --    0.45147   0.45577   0.49958   0.50873   0.51992

 Mulliken charges:
               1
     1  N   -0.649501
     2  S    1.017883
     3  S    1.084339
     4  C    0.588651
     5  C   -0.270222
     6  H    0.090324
     7  F   -0.240735
     8  O   -0.596087
     9  O   -0.618778
    10  O   -0.594328
    11  O   -0.572669
    12  F   -0.232104
    13  H    0.109020
    14  F   -0.221361
    15  H    0.105569
 Sum of Mulliken charges =  -1.00000

 Dipole moment (field-independent basis, Debye):
    X=             -4.3837    Y=             -1.4181    Z=             -5.3034  Tot=              7.0252
 Quadrupole moment (field-independent basis, Debye-Ang):
   XX=           -104.0336   YY=            -92.2881   ZZ=            -95.9222
   XY=             -0.7316   XZ=              4.4587   YZ=              7.2898

 Normal termination of Gaussian 09 at Sat Feb 13 10:08:07 2021.
