 Gaussian 09, Revision E.01,
 Gaussian 09:  ES64L-G09RevE.01 30-Nov-2015

 ----------------------------------------------------------------------
 # RMP2=(full,semidirect)/cc-pVTZ int=ultrafine symmetry=none scf=(conv
 er=10)
 ----------------------------------------------------------------------

 ---------------
 NTfMs_88_0TSMP2
 ---------------
 Symbolic Z-matrix:
 Charge = -1 Multiplicity = 1

                          Input orientation:
 ---------------------------------------------------------------------
 Center     Atomic      Atomic             Coordinates (Angstroms)
 Number     Number       Type             X           Y           Z
 ---------------------------------------------------------------------
      1          7           0       -0.009137   -0.039257    0.034126
      2         16           0        0.025460   -0.111453    1.600423
      3         16           0        1.240619    0.029024   -1.030320
      4          6           0        0.077284    1.696898    2.157396
      5          6           0        2.821493    0.021974   -0.144913
      6          1           0        3.568649    0.061247   -0.937188
      7          9           0        0.085139    1.793470    3.501755
      8          8           0        1.175406    1.312427   -1.746749
      9          8           0        1.224958   -1.193908   -1.846666
     10          8           0       -1.264704   -0.564092    2.118103
     11          8           0        1.249797   -0.658466    2.210508
     12          9           0       -0.976879    2.388737    1.704793
     13          1           0        2.899550   -0.887969    0.441924
     14          9           0        1.194437    2.305492    1.702795
     15          1           0        2.879192    0.899790    0.493251
 ---------------------------------------------------------------------

 SCF Done:  E(RHF) =  -1525.01989525     A.U. after   17 cycles
 E2 =    -0.2831714818D+01 EUMP2 =    -0.15278516100644D+04

 Alpha  occ. eigenvalues --  -92.08139 -92.05913 -26.23161 -26.22974 -26.22864
 Alpha  occ. eigenvalues --  -20.41871 -20.41380 -20.39361 -20.39329 -15.42327
 Alpha  occ. eigenvalues --  -11.39978 -11.13817  -9.04406  -9.02384  -6.72953
 Alpha  occ. eigenvalues --   -6.72917  -6.72860  -6.70931  -6.70838  -6.70806
 Alpha  occ. eigenvalues --   -1.61584  -1.52362  -1.52238  -1.32245  -1.29451
 Alpha  occ. eigenvalues --   -1.20166  -1.17734  -1.06620  -0.89807  -0.87463
 Alpha  occ. eigenvalues --   -0.78130  -0.71909  -0.70910  -0.70714  -0.62805
 Alpha  occ. eigenvalues --   -0.59971  -0.59863  -0.56872  -0.55631  -0.55287
 Alpha  occ. eigenvalues --   -0.53928  -0.53316  -0.52922  -0.50840  -0.50285
 Alpha  occ. eigenvalues --   -0.48730  -0.46073  -0.40845  -0.38037  -0.36897
 Alpha  occ. eigenvalues --   -0.36046  -0.35464  -0.33709  -0.32624  -0.32025
 Alpha  occ. eigenvalues --   -0.28986  -0.27129
 Alpha virt. eigenvalues --    0.27292   0.31902   0.33964   0.34245   0.35835
 Alpha virt. eigenvalues --    0.37600   0.39891   0.40948   0.41406   0.42887
 Alpha virt. eigenvalues --    0.45873   0.46463   0.48854   0.50851   0.51474

 Mulliken charges:
               1
     1  N   -0.602197
     2  S    1.014468
     3  S    1.080801
     4  C    0.592768
     5  C   -0.316842
     6  H    0.108129
     7  F   -0.237984
     8  O   -0.615637
     9  O   -0.613559
    10  O   -0.578885
    11  O   -0.613405
    12  F   -0.224749
    13  H    0.131739
    14  F   -0.242270
    15  H    0.117623
 Sum of Mulliken charges =  -1.00000

 Dipole moment (field-independent basis, Debye):
    X=              0.2164    Y=              0.3573    Z=             -0.6497  Tot=              0.7724
 Quadrupole moment (field-independent basis, Debye-Ang):
   XX=            -85.2517   YY=            -94.1892   ZZ=           -111.1387
   XY=             -0.2514   XZ=              5.9707   YZ=              1.5730

 Normal termination of Gaussian 09 at Sun Feb 14 12:44:18 2021.
