 Gaussian 09, Revision E.01,
 Gaussian 09:  ES64L-G09RevE.01 30-Nov-2015

 ----------------------------------------------------------------------
 # RMP2=(full,semidirect)/cc-pVTZ int=ultrafine symmetry=none scf=(conv
 er=10)
 ----------------------------------------------------------------------

 -----------------
 NTfMs_158_58TSMP2
 -----------------
 Symbolic Z-matrix:
 Charge = -1 Multiplicity = 1

                          Input orientation:
 ---------------------------------------------------------------------
 Center     Atomic      Atomic             Coordinates (Angstroms)
 Number     Number       Type             X           Y           Z
 ---------------------------------------------------------------------
      1          7           0       -0.038792   -0.021580    0.034973
      2         16           0        0.192916   -0.121376    1.606329
      3         16           0        1.165580    0.061549   -1.059963
      4          6           0       -1.494611    0.537260    2.129135
      5          6           0        2.153652   -1.429582   -0.773085
      6          1           0        2.920748   -1.457661   -1.546529
      7          9           0       -1.569837    0.523077    3.475770
      8          8           0        2.076316    1.199740   -0.873181
      9          8           0        0.533850   -0.089350   -2.377782
     10          8           0        0.203881   -1.504405    2.113492
     11          8           0        1.160574    0.799268    2.215646
     12          9           0       -2.501148   -0.212436    1.658177
     13          1           0        1.492920   -2.291657   -0.836964
     14          9           0       -1.684251    1.799593    1.723928
     15          1           0        2.603049   -1.359327    0.216498
 ---------------------------------------------------------------------

 SCF Done:  E(RHF) =  -1525.02002452     A.U. after   17 cycles
 E2 =    -0.2830332825D+01 EUMP2 =    -0.15278503573400D+04

 Alpha  occ. eigenvalues --  -92.07648 -92.05628 -26.22958 -26.22902 -26.22858
 Alpha  occ. eigenvalues --  -20.41322 -20.41181 -20.39305 -20.39228 -15.41907
 Alpha  occ. eigenvalues --  -11.40326 -11.13963  -9.04034  -9.02071  -6.72584
 Alpha  occ. eigenvalues --   -6.72506  -6.72454  -6.70604  -6.70539  -6.70516
 Alpha  occ. eigenvalues --   -1.61648  -1.52378  -1.52191  -1.31744  -1.29281
 Alpha  occ. eigenvalues --   -1.19340  -1.17684  -1.06578  -0.90108  -0.87384
 Alpha  occ. eigenvalues --   -0.78269  -0.71382  -0.70962  -0.69947  -0.62385
 Alpha  occ. eigenvalues --   -0.59808  -0.59774  -0.56372  -0.55385  -0.55026
 Alpha  occ. eigenvalues --   -0.53806  -0.53708  -0.52365  -0.50673  -0.50016
 Alpha  occ. eigenvalues --   -0.48068  -0.46063  -0.42575  -0.38064  -0.36420
 Alpha  occ. eigenvalues --   -0.35577  -0.34215  -0.33689  -0.32377  -0.31365
 Alpha  occ. eigenvalues --   -0.29359  -0.26892
 Alpha virt. eigenvalues --    0.26660   0.31330   0.32331   0.33156   0.36783
 Alpha virt. eigenvalues --    0.37760   0.38967   0.41260   0.42379   0.43559
 Alpha virt. eigenvalues --    0.44050   0.48533   0.49671   0.51036   0.51853

 Mulliken charges:
               1
     1  N   -0.637595
     2  S    1.037449
     3  S    1.063190
     4  C    0.608866
     5  C   -0.299376
     6  H    0.098568
     7  F   -0.236734
     8  O   -0.600859
     9  O   -0.611928
    10  O   -0.613762
    11  O   -0.581524
    12  F   -0.227215
    13  H    0.114758
    14  F   -0.224112
    15  H    0.110273
 Sum of Mulliken charges =  -1.00000

 Dipole moment (field-independent basis, Debye):
    X=             -1.7506    Y=             -2.4873    Z=             -1.8636  Tot=              3.5671
 Quadrupole moment (field-independent basis, Debye-Ang):
   XX=            -90.2318   YY=            -90.6771   ZZ=           -110.2614
   XY=             -8.9534   XZ=             -0.1580   YZ=              4.2519

 Normal termination of Gaussian 09 at Sat Feb 13 10:04:31 2021.
