 Gaussian 09, Revision E.01,
 Gaussian 09:  ES64L-G09RevE.01 30-Nov-2015

 ----------------------------------------------------------------------
 # RMP2=(full,semidirect)/cc-pVTZ int=ultrafine symmetry=none scf=(conv
 er=10)
 ----------------------------------------------------------------------

 -----------------
 NTfMs_267_93TSMP2
 -----------------
 Symbolic Z-matrix:
 Charge = -1 Multiplicity = 1

                          Input orientation:
 ---------------------------------------------------------------------
 Center     Atomic      Atomic             Coordinates (Angstroms)
 Number     Number       Type             X           Y           Z
 ---------------------------------------------------------------------
      1          7           0        0.022256    0.146251    0.011757
      2         16           0        0.125088    0.101583    1.595082
      3         16           0        1.244730    0.034566   -1.076271
      4          6           0       -0.150385   -1.727046    2.016900
      5          6           0        1.313732   -1.729460   -1.475564
      6          1           0        2.012060   -1.833261   -2.305719
      7          9           0       -0.261685   -1.902427    3.345725
      8          8           0        2.572010    0.407593   -0.571159
      9          8           0        0.764881    0.696906   -2.296529
     10          8           0        1.421077    0.380652    2.214593
     11          8           0       -1.072046    0.720790    2.165333
     12          9           0        0.884443   -2.491846    1.596766
     13          1           0        0.313859   -2.047410   -1.765184
     14          9           0       -1.264793   -2.217117    1.445664
     15          1           0        1.662997   -2.273792   -0.602135
 ---------------------------------------------------------------------

 SCF Done:  E(RHF) =  -1525.01793514     A.U. after   18 cycles
 E2 =    -0.2832067202D+01 EUMP2 =    -0.15278500023375D+04

 Alpha  occ. eigenvalues --  -92.07590 -92.05811 -26.23335 -26.23117 -26.23043
 Alpha  occ. eigenvalues --  -20.41110 -20.40844 -20.39615 -20.39346 -15.42328
 Alpha  occ. eigenvalues --  -11.39981 -11.14166  -9.03882  -9.02256  -6.72434
 Alpha  occ. eigenvalues --   -6.72376  -6.72321  -6.70779  -6.70724  -6.70700
 Alpha  occ. eigenvalues --   -1.61709  -1.52480  -1.52386  -1.31772  -1.29459
 Alpha  occ. eigenvalues --   -1.19566  -1.17948  -1.06108  -0.90041  -0.87517
 Alpha  occ. eigenvalues --   -0.77946  -0.71730  -0.71049  -0.70713  -0.62226
 Alpha  occ. eigenvalues --   -0.60200  -0.60089  -0.56329  -0.55784  -0.55445
 Alpha  occ. eigenvalues --   -0.54194  -0.53646  -0.51974  -0.51413  -0.49986
 Alpha  occ. eigenvalues --   -0.47840  -0.46188  -0.42946  -0.38003  -0.36019
 Alpha  occ. eigenvalues --   -0.35395  -0.34053  -0.33703  -0.32173  -0.30966
 Alpha  occ. eigenvalues --   -0.29041  -0.28005
 Alpha virt. eigenvalues --    0.26318   0.31048   0.33294   0.34157   0.35683
 Alpha virt. eigenvalues --    0.38360   0.39108   0.39907   0.41604   0.42970
 Alpha virt. eigenvalues --    0.44315   0.46794   0.49642   0.51431   0.51621

 Mulliken charges:
               1
     1  N   -0.638500
     2  S    1.034228
     3  S    1.071815
     4  C    0.587260
     5  C   -0.314583
     6  H    0.103565
     7  F   -0.232865
     8  O   -0.589265
     9  O   -0.609370
    10  O   -0.567034
    11  O   -0.587045
    12  F   -0.249436
    13  H    0.111875
    14  F   -0.237884
    15  H    0.117237
 Sum of Mulliken charges =  -1.00000

 Dipole moment (field-independent basis, Debye):
    X=             -2.9228    Y=             -3.9170    Z=             -3.1556  Tot=              5.8175
 Quadrupole moment (field-independent basis, Debye-Ang):
   XX=           -100.1932   YY=            -85.8840   ZZ=           -106.8597
   XY=             -4.4885   XZ=              1.6282   YZ=              5.3103

 Normal termination of Gaussian 09 at Sat Feb 13 10:04:37 2021.
