 Gaussian 09, Revision E.01,
 Gaussian 09:  ES64L-G09RevE.01 30-Nov-2015

 ----------------------------------------------------------------------
 # opt=(maxcycles=100,verytight) freq rb3lyp/6-311+g(d,p) empiricaldisp
 ersion=gd3bj int=ultrafine scf=conver=10 symmetry=none
 ----------------------------------------------------------------------

 -----
 ANION
 -----
 Symbolic Z-matrix:
 Charge = -1 Multiplicity = 1

 SCF Done:  E(RB3LYP) =  -1865.73968038     A.U. after   25 cycles
 Optimization completed.
    -- Stationary point found.
 Normal termination of Gaussian 09 at Wed Apr  6 17:19:41 2022.

 ----------------------------------------------------------------------
 #N Geom=AllCheck Guess=TCheck SCRF=Check GenChk RB3LYP/6-311+G(d,p) Fr
 eq
 ----------------------------------------------------------------------

 Structure from the checkpoint file:  "PFSI.chk"
 -----
 ANION
 -----
 Charge = -1 Multiplicity = 1

                          Input orientation:
 ---------------------------------------------------------------------
 Center     Atomic      Atomic             Coordinates (Angstroms)
 Number     Number       Type             X           Y           Z
 ---------------------------------------------------------------------
      1          7           0        1.620830   -0.000000   -0.671228
      2          6           0       -0.707069    1.312396   -0.194583
      3          6           0       -0.707069   -1.312396   -0.194583
      4          6           0       -1.327576    0.000000    0.358062
      5         16           0        1.179036   -1.404702   -0.006857
      6         16           0        1.179036    1.404702   -0.006857
      7          8           0        1.594716    2.478840   -0.902148
      8          8           0        1.398181    1.553841    1.429566
      9          8           0        1.398181   -1.553841    1.429566
     10          8           0        1.594716   -2.478840   -0.902148
     11          9           0       -1.020183   -1.418897   -1.505115
     12          9           0       -1.276285   -2.355701    0.455343
     13          9           0       -2.659827    0.000000    0.045872
     14          9           0       -1.229861    0.000000    1.703051
     15          9           0       -1.020183    1.418897   -1.505115
     16          9           0       -1.276285    2.355701    0.455343
 ---------------------------------------------------------------------

 SCF Done:  E(RB3LYP) =  -1865.73968038     A.U. after    4 cycles

 Alpha  occ. eigenvalues --  -88.95916 -88.95916 -24.62535 -24.62417 -24.62213
 Alpha  occ. eigenvalues --  -24.62213 -24.62111 -24.62110 -19.00958 -19.00957
 Alpha  occ. eigenvalues --  -19.00862 -19.00862 -14.20659 -10.29169 -10.28100
 Alpha  occ. eigenvalues --  -10.28098  -8.01998  -8.01997  -5.98244  -5.98244
 Alpha  occ. eigenvalues --   -5.98206  -5.98206  -5.98194  -5.98194  -1.21437
 Alpha  occ. eigenvalues --   -1.19595  -1.18519  -1.14315  -1.13548  -1.13382
 Alpha  occ. eigenvalues --   -1.02106  -1.00500  -0.90212  -0.89923  -0.80888
 Alpha  occ. eigenvalues --   -0.72192  -0.65707  -0.58750  -0.58714  -0.52625
 Alpha  occ. eigenvalues --   -0.51713  -0.51356  -0.48844  -0.48790  -0.47132
 Alpha  occ. eigenvalues --   -0.47028  -0.41907  -0.39721  -0.39448  -0.37829
 Alpha  occ. eigenvalues --   -0.37363  -0.36381  -0.36370  -0.35580  -0.35520
 Alpha  occ. eigenvalues --   -0.34954  -0.34174  -0.33941  -0.33907  -0.33101
 Alpha  occ. eigenvalues --   -0.32946  -0.28431  -0.28249  -0.24326  -0.22850
 Alpha  occ. eigenvalues --   -0.21955  -0.21696  -0.21300  -0.19916  -0.18729
 Alpha  occ. eigenvalues --   -0.18308  -0.16032
 Alpha virt. eigenvalues --    0.09295   0.11115   0.12324   0.13233   0.14144
 Alpha virt. eigenvalues --    0.14247   0.15273   0.15639   0.16219   0.16488
 Alpha virt. eigenvalues --    0.17400   0.17777   0.18208   0.18511   0.19153

 Mulliken charges:
               1
     1  N   -0.468489
     2  C   -0.526098
     3  C   -0.526098
     4  C    0.190747
     5  S    0.558741
     6  S    0.558741
     7  O   -0.082005
     8  O   -0.195292
     9  O   -0.195292
    10  O   -0.082005
    11  F   -0.010150
    12  F   -0.047037
    13  F   -0.119754
    14  F    0.001179
    15  F   -0.010150
    16  F   -0.047037
 Sum of Mulliken charges =  -1.00000

 Dipole moment (field-independent basis, Debye):
    X=             -5.1666    Y=              0.0000    Z=             -0.1795  Tot=              5.1697
 Quadrupole moment (field-independent basis, Debye-Ang):
   XX=           -120.4328   YY=           -129.4897   ZZ=           -118.5987
   XY=             -0.0000   XZ=              0.5037   YZ=              0.0000

  Exact polarizability: 100.086  -0.000 111.983  -0.297  -0.000  91.319
 Approx polarizability: 141.790  -0.000 158.696  -1.259  -0.000 162.281

                      1                      2                      3
                      A                      A                      A
 Frequencies --     54.9753                90.6822               144.3568
 Red. masses --     17.8867                18.4182                16.1944
 Frc consts  --      0.0319                 0.0892                 0.1988
 IR Inten    --      0.0844                 0.0623                 0.2795

                      4                      5                      6
                      A                      A                      A
 Frequencies --    154.7771               164.7412               206.6664
 Red. masses --     17.8551                17.7348                17.4573
 Frc consts  --      0.2520                 0.2836                 0.4393
 IR Inten    --      0.1993                 1.3954                 0.4884

                      7                      8                      9
                      A                      A                      A
 Frequencies --    227.3093               232.2401               248.8634
 Red. masses --     17.1578                18.0071                16.9015
 Frc consts  --      0.5223                 0.5722                 0.6167
 IR Inten    --      0.0703                 0.4671                 0.2758

                     10                     11                     12
                      A                      A                      A
 Frequencies --    267.5598               283.4018               290.3975
 Red. masses --     18.4640                18.2758                17.5312
 Frc consts  --      0.7788                 0.8648                 0.8711
 IR Inten    --      1.0995                 0.9034                 1.8370

                     13                     14                     15
                      A                      A                      A
 Frequencies --    298.9876               299.6750               316.1353
 Red. masses --     17.0989                18.1621                17.9495
 Frc consts  --      0.9006                 0.9610                 1.0569
 IR Inten    --      2.4744                 0.2188                 0.1174

                     16                     17                     18
                      A                      A                      A
 Frequencies --    343.4074               362.1362               400.5250
 Red. masses --     18.8432                17.8360                16.8609
 Frc consts  --      1.3093                 1.3781                 1.5936
 IR Inten    --      2.9908                 4.1364                 4.5865

                     19                     20                     21
                      A                      A                      A
 Frequencies --    418.1968               498.5347               516.2715
 Red. masses --     17.7534                17.3383                19.1418
 Frc consts  --      1.8293                 2.5389                 3.0060
 IR Inten    --     18.1953                 4.0231               109.6506

                     22                     23                     24
                      A                      A                      A
 Frequencies --    550.0288               553.8287               578.3662
 Red. masses --     21.7359                17.9575                18.3155
 Frc consts  --      3.8743                 3.2452                 3.6097
 IR Inten    --      6.7844                 3.0509               138.0120

                     25                     26                     27
                      A                      A                      A
 Frequencies --    600.5206               634.5747               657.3108
 Red. masses --     17.7144                17.5965                17.5557
 Frc consts  --      3.7638                 4.1749                 4.4690
 IR Inten    --      0.6408                 4.9463                 3.9000

                     28                     29                     30
                      A                      A                      A
 Frequencies --    748.3328               882.2697               960.5604
 Red. masses --     19.9677                13.2365                13.6645
 Frc consts  --      6.5882                 6.0705                 7.4284
 IR Inten    --    204.2277                 8.4447                94.5105

                     31                     32                     33
                      A                      A                      A
 Frequencies --    992.3713              1042.8500              1111.3075
 Red. masses --     14.7068                13.7992                17.6845
 Frc consts  --      8.5333                 8.8419                12.8680
 IR Inten    --    366.6181                10.9775               573.6978

                     34                     35                     36
                      A                      A                      A
 Frequencies --   1113.5017              1121.4859              1147.2635
 Red. masses --     15.1511                13.3366                13.3593
 Frc consts  --     11.0682                 9.8828                10.3600
 IR Inten    --     43.5188                75.1745               150.8784

                     37                     38                     39
                      A                      A                      A
 Frequencies --   1156.0520              1173.0643              1239.1064
 Red. masses --     13.6151                14.5886                12.4504
 Frc consts  --     10.7207                11.8279                11.2629
 IR Inten    --    276.7330                21.4607                37.0330

                     40                     41                     42
                      A                      A                      A
 Frequencies --   1263.2645              1281.8902              1304.7695
 Red. masses --     12.8794                20.5278                20.5352
 Frc consts  --     12.1097                19.8744                20.5976
 IR Inten    --    113.7480                60.1665               470.8376

 - Thermochemistry -
 -------------------
 Temperature   298.150 Kelvin.  Pressure   1.00000 Atm.
 Atom     1 has atomic number  7 and mass  14.00307

 Molecular mass:   291.91730 amu.
 Principal axes and moments of inertia in atomic units:
                           1         2         3
     Eigenvalues --  2916.020383491.862684628.40392
           X            0.00000   0.99982   0.01912
           Y            1.00000  -0.00000   0.00000
           Z           -0.00000  -0.01912   0.99982
 This molecule is an asymmetric top.
 Rotational symmetry number  1.
 Warning -- assumption of classical behavior for rotation
           may cause significant error
 Rotational temperatures (Kelvin)      0.02970     0.02480     0.01871
 Rotational constants (GHZ):           0.61891     0.51684     0.38993
 Zero-point vibrational energy     155111.2 (Joules/Mol)
                                   37.07246 (Kcal/Mol)
 Warning -- explicit consideration of  25 degrees of freedom as
           vibrations may cause significant error
 Vibrational temperatures:     79.10   130.47   207.70   222.69   237.03
          (Kelvin)            297.35   327.05   334.14   358.06   384.96
                              407.75   417.82   430.18   431.17   454.85
                              494.09   521.03   576.27   601.69   717.28
                              742.80   791.37   796.83   832.14   864.01
                              913.01   945.72  1076.68  1269.39  1382.03
                             1427.80  1500.43  1598.92  1602.08  1613.57
                             1650.65  1663.30  1687.78  1782.80  1817.55
                             1844.35  1877.27

 Zero-point correction=                           0.059079 (Hartree/Particle)
 Thermal correction to Energy=                    0.073224
 Thermal correction to Enthalpy=                  0.074168
 Thermal correction to Gibbs Free Energy=         0.018598
 Sum of electronic and zero-point Energies=          -1865.680602
 Sum of electronic and thermal Energies=             -1865.666456
 Sum of electronic and thermal Enthalpies=           -1865.665512
 Sum of electronic and thermal Free Energies=        -1865.721082

                     E (Thermal)             CV                S
                      KCal/Mol        Cal/Mol-Kelvin    Cal/Mol-Kelvin
 Total                   45.949             52.208            116.957
 Electronic               0.000              0.000              0.000
 Translational            0.889              2.981             42.911
 Rotational               0.889              2.981             32.222
 Vibrational             44.171             46.246             41.824
 Vibration     1          0.596              1.976              4.630
 Vibration     2          0.602              1.956              3.645
 Vibration     3          0.616              1.909              2.745
 Vibration     4          0.620              1.897              2.613
 Vibration     5          0.623              1.886              2.495
 Vibration     6          0.641              1.830              2.073
 Vibration     7          0.651              1.799              1.900
 Vibration     8          0.653              1.792              1.862
 Vibration     9          0.662              1.765              1.739
 Vibration    10          0.673              1.733              1.612
 Vibration    11          0.682              1.704              1.513
 Vibration    12          0.686              1.692              1.472
 Vibration    13          0.692              1.676              1.423
 Vibration    14          0.692              1.674              1.419
 Vibration    15          0.703              1.643              1.330
 Vibration    16          0.722              1.589              1.196
 Vibration    17          0.736              1.550              1.113
 Vibration    18          0.766              1.469              0.961
 Vibration    19          0.781              1.431              0.898
 Vibration    20          0.854              1.253              0.662
 Vibration    21          0.871              1.214              0.619
 Vibration    22          0.905              1.140              0.544
 Vibration    23          0.909              1.131              0.536
 Vibration    24          0.935              1.078              0.488
 Vibration    25          0.959              1.031              0.449

 Optimization completed.
    -- Stationary point found.
 Normal termination of Gaussian 09 at Wed Apr  6 17:28:48 2022.
