 Gaussian 09, Revision E.01,
 Gaussian 09:  ES64L-G09RevE.01 30-Nov-2015

 ----------------------------------------------------------------------
 # opt=(maxcycles=100,verytight) freq rb3lyp/6-311+g(d,p) empiricaldisp
 ersion=gd3bj int=ultrafine scf=conver=10 symmetry=none
 ----------------------------------------------------------------------

 -----
 ANION
 -----
 Symbolic Z-matrix:
 Charge = -1 Multiplicity = 1

 SCF Done:  E(RB3LYP) =  -396.527107280     A.U. after   12 cycles
 SCF Done:  E(RB3LYP) =  -396.527107280     A.U. after    6 cycles
 Optimization completed.
    -- Stationary point found.

 1\1\GINC-CX3-1-17\FOpt\RB3LYP\6-311+G(d,p)\C4B1N4\ROOT\06-Apr-2022\0\\
 # opt=(maxcycles=100,verytight) freq rb3lyp/6-311+g(d,p) empiricaldisp
 ersion=gd3bj int=ultrafine scf=conver=10 symmetry=none\\ANION\\-1,1\B,
 0.0000000007,0.,-0.0000000007\C,0.9193830658,0.9193830601,0.9193830624
 \N,1.5863321642,1.5863321795,1.5863321717\C,-0.9193830604,-0.919383064
 8,0.9193830618\N,-1.5863321682,-1.5863321753,1.5863321706\C,0.91938306
 11,-0.9193830608,-0.9193830678\N,1.5863321684,-1.5863321807,-1.5863321
 677\C,-0.9193830638,0.9193830655,-0.9193830591\N,-1.5863321678,1.58633

 Normal termination of Gaussian 09 at Wed Apr  6 17:22:16 2022.

 ----------------------------------------------------------------------
 #N Geom=AllCheck Guess=TCheck SCRF=Check GenChk RB3LYP/6-311+G(d,p) Fr
 eq
 ----------------------------------------------------------------------

 Structure from the checkpoint file:  "TCB.chk"
 -----
 ANION
 -----
 Charge = -1 Multiplicity = 1

                          Input orientation:
 ---------------------------------------------------------------------
 Center     Atomic      Atomic             Coordinates (Angstroms)
 Number     Number       Type             X           Y           Z
 ---------------------------------------------------------------------
      1          5           0        0.000000    0.000000   -0.000000
      2          6           0        0.919383    0.919383    0.919383
      3          7           0        1.586332    1.586332    1.586332
      4          6           0       -0.919383   -0.919383    0.919383
      5          7           0       -1.586332   -1.586332    1.586332
      6          6           0        0.919383   -0.919383   -0.919383
      7          7           0        1.586332   -1.586332   -1.586332
      8          6           0       -0.919383    0.919383   -0.919383
      9          7           0       -1.586332    1.586332   -1.586332
 ---------------------------------------------------------------------

 SCF Done:  E(RB3LYP) =  -396.527107280     A.U. after    1 cycles

 Alpha  occ. eigenvalues --  -14.19097 -14.19097 -14.19097 -14.19097 -10.07415
 Alpha  occ. eigenvalues --  -10.07415 -10.07415 -10.07414  -6.67325  -0.78972
 Alpha  occ. eigenvalues --   -0.78374  -0.78374  -0.78374  -0.55335  -0.38249
 Alpha  occ. eigenvalues --   -0.38249  -0.38249  -0.25544  -0.25414  -0.25414
 Alpha  occ. eigenvalues --   -0.25414  -0.23687  -0.23687  -0.21412  -0.21412
 Alpha  occ. eigenvalues --   -0.21412  -0.21325  -0.21325  -0.21325
 Alpha virt. eigenvalues --    0.11367   0.11479   0.11479   0.11479   0.12810
 Alpha virt. eigenvalues --    0.12810   0.13511   0.13511   0.13511   0.17385
 Alpha virt. eigenvalues --    0.17385   0.17385   0.20217   0.20217   0.20217

 Mulliken charges:
               1
     1  B    1.145598
     2  C   -0.176102
     3  N   -0.360297
     4  C   -0.176102
     5  N   -0.360297
     6  C   -0.176102
     7  N   -0.360297
     8  C   -0.176102
     9  N   -0.360297
 Sum of Mulliken charges =  -1.00000

 Dipole moment (field-independent basis, Debye):
    X=              0.0000    Y=             -0.0000    Z=             -0.0000  Tot=              0.0000
 Quadrupole moment (field-independent basis, Debye-Ang):
   XX=            -71.7344   YY=            -71.7344   ZZ=            -71.7344
   XY=              0.0000   XZ=             -0.0000   YZ=             -0.0000

  Exact polarizability:  76.084  -0.000  76.084  -0.000   0.000  76.084
 Approx polarizability: 110.984  -0.000 110.984   0.000   0.000 110.984

                      1                      2                      3
                      A                      A                      A
 Frequencies --    103.8143               103.8143               139.6184
 Red. masses --     13.8422                13.8422                13.3723
 Frc consts  --      0.0879                 0.0879                 0.1536
 IR Inten    --      0.0000                 0.0000                12.4649

                      4                      5                      6
                      A                      A                      A
 Frequencies --    139.6184               139.6184               343.6121
 Red. masses --     13.3723                13.3723                12.3963
 Frc consts  --      0.1536                 0.1536                 0.8623
 IR Inten    --     12.4649                12.4649                 0.0000

                      7                      8                      9
                      A                      A                      A
 Frequencies --    343.6121               343.6121               486.0582
 Red. masses --     12.3963                12.3963                13.1103
 Frc consts  --      0.8623                 0.8623                 1.8249
 IR Inten    --      0.0000                 0.0000                 0.0000

                     10                     11                     12
                      A                      A                      A
 Frequencies --    506.0742               506.0742               506.0742
 Red. masses --     12.4041                12.4041                12.4041
 Frc consts  --      1.8717                 1.8717                 1.8717
 IR Inten    --      4.9834                 4.9834                 4.9834

                     13                     14                     15
                      A                      A                      A
 Frequencies --    538.1106               538.1106               948.3050
 Red. masses --     12.1207                12.1207                11.3413
 Frc consts  --      2.0679                 2.0679                 6.0091
 IR Inten    --      0.0000                 0.0000                89.4444

                     16                     17                     18
                      A                      A                      A
 Frequencies --    948.3050               948.3050              2316.9055
 Red. masses --     11.3413                11.3413                12.7379
 Frc consts  --      6.0091                 6.0091                40.2871
 IR Inten    --     89.4444                89.4444                 1.1712

                     19                     20                     21
                      A                      A                      A
 Frequencies --   2316.9055              2316.9055              2321.5736
 Red. masses --     12.7379                12.7379                12.7436
 Frc consts  --     40.2871                40.2871                40.4677
 IR Inten    --      1.1712                 1.1712                 0.0000

 - Thermochemistry -
 -------------------
 Temperature   298.150 Kelvin.  Pressure   1.00000 Atm.
 Atom     1 has atomic number  5 and mass  11.00931

 Molecular mass:   115.02160 amu.
 Principal axes and moments of inertia in atomic units:
                           1         2         3
     Eigenvalues --  1296.474091296.474091296.47409
           X           -0.07040   0.02641   0.99717
           Y            0.99274  -0.09588   0.07262
           Z            0.09752   0.99504  -0.01947
 This molecule is an asymmetric top.
 Rotational symmetry number  1.
 Warning -- assumption of classical behavior for rotation
           may cause significant error
 Rotational temperatures (Kelvin)      0.06681     0.06681     0.06681
 Rotational constants (GHZ):           1.39204     1.39204     1.39204
 Zero-point vibrational energy     100815.4 (Joules/Mol)
                                   24.09547 (Kcal/Mol)
 Warning -- explicit consideration of  14 degrees of freedom as
           vibrations may cause significant error
 Vibrational temperatures:    149.37   149.37   200.88   200.88   200.88
          (Kelvin)            494.38   494.38   494.38   699.33   728.13
                              728.13   728.13   774.22   774.22  1364.40
                             1364.40  1364.40  3333.51  3333.51  3333.51
                             3340.22

 Zero-point correction=                           0.038399 (Hartree/Particle)
 Thermal correction to Energy=                    0.047200
 Thermal correction to Enthalpy=                  0.048144
 Thermal correction to Gibbs Free Energy=         0.004342
 Sum of electronic and zero-point Energies=           -396.488709
 Sum of electronic and thermal Energies=              -396.479908
 Sum of electronic and thermal Enthalpies=            -396.478964
 Sum of electronic and thermal Free Energies=         -396.522765

                     E (Thermal)             CV                S
                      KCal/Mol        Cal/Mol-Kelvin    Cal/Mol-Kelvin
 Total                   29.618             29.008             92.188
 Electronic               0.000              0.000              0.000
 Translational            0.889              2.981             40.135
 Rotational               0.889              2.981             29.168
 Vibrational             27.841             23.046             22.885
 Vibration     1          0.605              1.946              3.381
 Vibration     2          0.605              1.946              3.381
 Vibration     3          0.615              1.914              2.809
 Vibration     4          0.615              1.914              2.809
 Vibration     5          0.615              1.914              2.809
 Vibration     6          0.722              1.588              1.195
 Vibration     7          0.722              1.588              1.195
 Vibration     8          0.722              1.588              1.195
 Vibration     9          0.842              1.281              0.694
 Vibration    10          0.861              1.237              0.643
 Vibration    11          0.861              1.237              0.643
 Vibration    12          0.861              1.237              0.643
 Vibration    13          0.893              1.166              0.569
 Vibration    14          0.893              1.166              0.569

 Optimization completed.
    -- Stationary point found.

 1\1\GINC-CX3-1-17\Freq\RB3LYP\6-311+G(d,p)\C4B1N4\ROOT\06-Apr-2022\0\\
 #N Geom=AllCheck Guess=TCheck SCRF=Check GenChk RB3LYP/6-311+G(d,p) Fr
 eq\\ANION\\-1,1\B,0.0000000007,0.,-0.0000000007\C,0.9193830658,0.91938
 30601,0.9193830624\N,1.5863321642,1.5863321795,1.5863321717\C,-0.91938
 30604,-0.9193830648,0.9193830618\N,-1.5863321682,-1.5863321753,1.58633
 21706\C,0.9193830611,-0.9193830608,-0.9193830678\N,1.5863321684,-1.586
 3321807,-1.5863321677\C,-0.9193830638,0.9193830655,-0.9193830591\N,-1.
 5863321678,1.5863321764,-1.5863321712\\Version=ES64L-G09RevE.01\HF=-39

 Normal termination of Gaussian 09 at Wed Apr  6 17:30:00 2022.
