 Gaussian 09, Revision E.01,
 Gaussian 09:  ES64L-G09RevE.01 30-Nov-2015

 ----------------------------------------------------------------------
 # opt=(maxcycles=100,verytight) freq rb3lyp/6-311+g(d,p) empiricaldisp
 ersion=gd3bj int=ultrafine scf=conver=10 symmetry=none
 ----------------------------------------------------------------------

 -----
 ANION
 -----
 Symbolic Z-matrix:
 Charge = -1 Multiplicity = 1

 SCF Done:  E(RB3LYP) =  -1811.57804371     A.U. after   20 cycles
 Optimization completed.
    -- Stationary point found.
 Normal termination of Gaussian 09 at Wed Apr  6 17:18:22 2022.

 ----------------------------------------------------------------------
 #N Geom=AllCheck Guess=TCheck SCRF=Check GenChk RB3LYP/6-311+G(d,p) Fr
 eq
 ----------------------------------------------------------------------

 Structure from the checkpoint file:  "TFSM.chk"
 -----
 ANION
 -----
 Charge = -1 Multiplicity = 1

                          Input orientation:
 ---------------------------------------------------------------------
 Center     Atomic      Atomic             Coordinates (Angstroms)
 Number     Number       Type             X           Y           Z
 ---------------------------------------------------------------------
      1          6           0       -0.099159   -0.000055   -0.000062
      2         16           0        0.657221   -0.092963    1.501223
      3         16           0        0.658146    0.092936   -1.500876
      4          6           0        0.969006    1.696864    2.052712
      5          6           0        0.970419   -1.696858   -2.052193
      6          9           0        1.505138   -1.720320   -3.289001
      7          9           0        1.502965    1.720385    3.289847
      8          8           0        2.006512    0.658505   -1.463285
      9          8           0       -0.321752    0.548562   -2.497157
     10          8           0       -0.323258   -0.548658    2.496899
     11          8           0        2.005657   -0.658419    1.464477
     12          9           0       -0.184424    2.391678    2.093061
     13          9           0       -0.182928   -2.391767   -2.093257
     14          9           0        1.806572    2.333586    1.227783
     15          9           0        1.807534   -2.333521   -1.226760
     16          1           0       -1.176451   -0.000096   -0.000397
 ---------------------------------------------------------------------

 SCF Done:  E(RB3LYP) =  -1811.57804371     A.U. after    1 cycles

 Alpha  occ. eigenvalues --  -88.94023 -88.94023 -24.61605 -24.61605 -24.61580
 Alpha  occ. eigenvalues --  -24.61580 -24.61436 -24.61436 -19.00032 -19.00032
 Alpha  occ. eigenvalues --  -19.00026 -19.00026 -10.32321 -10.32321 -10.06933
 Alpha  occ. eigenvalues --   -8.00271  -8.00271  -5.96538  -5.96538  -5.96496
 Alpha  occ. eigenvalues --   -5.96496  -5.96379  -5.96379  -1.22204  -1.22201
 Alpha  occ. eigenvalues --   -1.13426  -1.13425  -1.13359  -1.13358  -0.99897
 Alpha  occ. eigenvalues --   -0.99245  -0.89285  -0.89069  -0.68833  -0.63650
 Alpha  occ. eigenvalues --   -0.61614  -0.56705  -0.52052  -0.50095  -0.49867
 Alpha  occ. eigenvalues --   -0.49818  -0.49778  -0.48413  -0.42354  -0.38535
 Alpha  occ. eigenvalues --   -0.38362  -0.37725  -0.37610  -0.37120  -0.36953
 Alpha  occ. eigenvalues --   -0.34854  -0.34338  -0.34106  -0.33998  -0.33744
 Alpha  occ. eigenvalues --   -0.33651  -0.33024  -0.32111  -0.31701  -0.31676
 Alpha  occ. eigenvalues --   -0.23838  -0.21912  -0.21327  -0.21107  -0.20005
 Alpha  occ. eigenvalues --   -0.19173  -0.18677  -0.17815  -0.13044
 Alpha virt. eigenvalues --    0.10981   0.12100   0.12905   0.14232   0.14421
 Alpha virt. eigenvalues --    0.14531   0.15313   0.15465   0.16636   0.17404
 Alpha virt. eigenvalues --    0.17909   0.18257   0.18923   0.19581   0.19660

 Mulliken charges:
               1
     1  C   -1.012684
     2  S    0.587855
     3  S    0.587859
     4  C    0.049478
     5  C    0.049481
     6  F   -0.121053
     7  F   -0.121052
     8  O   -0.263312
     9  O   -0.200743
    10  O   -0.200741
    11  O   -0.263315
    12  F   -0.091101
    13  F   -0.091101
    14  F   -0.072586
    15  F   -0.072588
    16  H    0.235604
 Sum of Mulliken charges =  -1.00000

 Dipole moment (field-independent basis, Debye):
    X=             -4.6030    Y=             -0.0000    Z=             -0.0013  Tot=              4.6030
 Quadrupole moment (field-independent basis, Debye-Ang):
   XX=           -113.5461   YY=           -108.5143   ZZ=           -129.8721
   XY=             -0.0005   XZ=              0.0051   YZ=              1.6202

  Exact polarizability:  90.808  -0.003  93.032  -0.010   7.970 121.070
 Approx polarizability: 155.206   0.002 130.315  -0.003  -1.921 164.695

                      1                      2                      3
                      A                      A                      A
 Frequencies --     32.0172                40.1003                43.2148
 Red. masses --     17.9901                16.7430                18.4407
 Frc consts  --      0.0109                 0.0159                 0.0203
 IR Inten    --      1.0253                 0.9500                 0.2959

                      4                      5                      6
                      A                      A                      A
 Frequencies --     50.8872                97.7720               144.9468
 Red. masses --     18.3378                18.3078                15.2927
 Frc consts  --      0.0280                 0.1031                 0.1893
 IR Inten    --      0.7570                 0.0450                 1.2797

                      7                      8                      9
                      A                      A                      A
 Frequencies --    191.8418               197.9471               205.3257
 Red. masses --     12.5968                17.3288                10.0990
 Frc consts  --      0.2731                 0.4001                 0.2509
 IR Inten    --      0.2666                 2.0015                10.4449

                     10                     11                     12
                      A                      A                      A
 Frequencies --    246.2702               250.8147               286.8051
 Red. masses --     10.7948                17.6836                16.9508
 Frc consts  --      0.3857                 0.6554                 0.8215
 IR Inten    --      1.6566                 0.0000                 3.7499

                     13                     14                     15
                      A                      A                      A
 Frequencies --    289.3523               316.9488               323.5789
 Red. masses --     17.3285                17.5627                15.0018
 Frc consts  --      0.8548                 1.0395                 0.9254
 IR Inten    --      0.3388                 0.4910                 9.4957

                     16                     17                     18
                      A                      A                      A
 Frequencies --    365.8158               370.7507               460.5932
 Red. masses --     17.4104                17.1608                 1.1813
 Frc consts  --      1.3727                 1.3898                 0.1477
 IR Inten    --      7.0213                 1.5180                48.4850

                     19                     20                     21
                      A                      A                      A
 Frequencies --    485.9111               510.5006               539.8172
 Red. masses --     15.5035                18.1436                17.7477
 Frc consts  --      2.1567                 2.7859                 3.0471
 IR Inten    --     70.9238                 0.2576                 0.0862

                     22                     23                     24
                      A                      A                      A
 Frequencies --    542.4285               550.3524               550.3869
 Red. masses --     16.5282                20.5031                12.0581
 Frc consts  --      2.8652                 3.6589                 2.1521
 IR Inten    --      0.7905                 0.7200                28.1053

                     25                     26                     27
                      A                      A                      A
 Frequencies --    580.7281               608.6239               734.3704
 Red. masses --     16.6759                15.5109                16.9053
 Frc consts  --      3.3135                 3.3852                 5.3716
 IR Inten    --    382.9343                 7.1452                 0.7248

                     28                     29                     30
                      A                      A                      A
 Frequencies --    736.8538               819.2058               955.7468
 Red. masses --     17.8267                 9.4471                 3.4930
 Frc consts  --      5.7027                 3.7354                 1.8799
 IR Inten    --      3.6686                26.6565               409.4044

                     31                     32                     33
                      A                      A                      A
 Frequencies --   1061.9284              1080.4169              1131.3313
 Red. masses --      6.6699                16.2995                13.1648
 Frc consts  --      4.4316                11.2100                 9.9276
 IR Inten    --    228.4195                 0.3329               242.7128

                     34                     35                     36
                      A                      A                      A
 Frequencies --   1132.0981              1151.1135              1152.3353
 Red. masses --      9.1279                13.8002                13.5058
 Frc consts  --      6.8927                10.7739                10.5665
 IR Inten    --    236.2816               522.9847                50.3826

                     37                     38                     39
                      A                      A                      A
 Frequencies --   1171.3707              1179.9679              1225.1602
 Red. masses --      8.7234                14.3871                 2.3720
 Frc consts  --      7.0522                11.8022                 2.0977
 IR Inten    --    183.2422                33.3961                91.6022

                     40                     41                     42
                      A                      A                      A
 Frequencies --   1285.3482              1293.6140              3251.0571
 Red. masses --      4.6975                20.1990                 1.0879
 Frc consts  --      4.5726                19.9154                 6.7749
 IR Inten    --    134.6522               504.7616                 7.2115

 - Thermochemistry -
 -------------------
 Temperature   298.150 Kelvin.  Pressure   1.00000 Atm.
 Atom     1 has atomic number  6 and mass  12.00000

 Molecular mass:   278.92205 amu.
 Principal axes and moments of inertia in atomic units:
                           1         2         3
     Eigenvalues --  1818.858315930.330036349.03341
           X           -0.00029   0.00013   1.00000
           Y            0.52438   0.85148   0.00004
           Z            0.85148  -0.52438   0.00031
 This molecule is an asymmetric top.
 Rotational symmetry number  1.
 Warning -- assumption of classical behavior for rotation
           may cause significant error
 Rotational temperatures (Kelvin)      0.04762     0.01461     0.01364
 Rotational constants (GHZ):           0.99224     0.30432     0.28425
 Zero-point vibrational energy     165357.7 (Joules/Mol)
                                   39.52144 (Kcal/Mol)
 Warning -- explicit consideration of  26 degrees of freedom as
           vibrations may cause significant error
 Vibrational temperatures:     46.07    57.70    62.18    73.22   140.67
          (Kelvin)            208.55   276.02   284.80   295.42   354.33
                              360.87   412.65   416.31   456.02   465.56
                              526.33   533.43   662.69   699.12   734.50
                              776.68   780.43   791.83   791.88   835.54
                              875.67  1056.59  1060.17  1178.65  1375.10
                             1527.88  1554.48  1627.73  1628.83  1656.19
                             1657.95  1685.34  1697.71  1762.73  1849.33
                             1861.22  4677.54

 Zero-point correction=                           0.062981 (Hartree/Particle)
 Thermal correction to Energy=                    0.077961
 Thermal correction to Enthalpy=                  0.078905
 Thermal correction to Gibbs Free Energy=         0.018689
 Sum of electronic and zero-point Energies=          -1811.515062
 Sum of electronic and thermal Energies=             -1811.500083
 Sum of electronic and thermal Enthalpies=           -1811.499139
 Sum of electronic and thermal Free Energies=        -1811.559355

                     E (Thermal)             CV                S
                      KCal/Mol        Cal/Mol-Kelvin    Cal/Mol-Kelvin
 Total                   48.921             52.171            126.735
 Electronic               0.000              0.000              0.000
 Translational            0.889              2.981             42.776
 Rotational               0.889              2.981             32.593
 Vibrational             47.144             46.209             51.366
 Vibration     1          0.594              1.983              5.700
 Vibration     2          0.594              1.981              5.254
 Vibration     3          0.595              1.980              5.106
 Vibration     4          0.595              1.977              4.783
 Vibration     5          0.603              1.951              3.498
 Vibration     6          0.616              1.908              2.738
 Vibration     7          0.634              1.851              2.210
 Vibration     8          0.637              1.843              2.152
 Vibration     9          0.640              1.832              2.085
 Vibration    10          0.661              1.769              1.757
 Vibration    11          0.663              1.761              1.725
 Vibration    12          0.684              1.698              1.493
 Vibration    13          0.686              1.694              1.478
 Vibration    14          0.704              1.641              1.326
 Vibration    15          0.708              1.628              1.292
 Vibration    16          0.739              1.543              1.097
 Vibration    17          0.743              1.532              1.077
 Vibration    18          0.818              1.337              0.764
 Vibration    19          0.842              1.281              0.694
 Vibration    20          0.866              1.227              0.632
 Vibration    21          0.895              1.162              0.566
 Vibration    22          0.898              1.156              0.560
 Vibration    23          0.906              1.139              0.543
 Vibration    24          0.906              1.139              0.543
 Vibration    25          0.937              1.073              0.484
 Vibration    26          0.968              1.014              0.435

 Optimization completed.
    -- Stationary point found.
 Normal termination of Gaussian 09 at Wed Apr  6 17:27:49 2022.
